192
Lattice="25.64277 0.0 0.0 -1e-06 25.64277 0.0 -1e-06 -1e-06 25.64277" Properties=species:S:1:pos:R:3:force:R:3:predicted_forces:R:3:forces:R:3:energies:R:1 TotEnergy=-1101.73885 cutoff=-1.0 nneightol=1.2 method=xtb predicted_energy=-1105.805419921875 energy=-1106.0089111328125 stress="-9.021684672916308e-05 -3.626795296440832e-05 6.619044143008068e-06 -3.626795296440832e-05 -7.551522139692679e-05 2.6360394258517772e-05 6.619044143008068e-06 2.6360394258517772e-05 -6.350204785121605e-05" free_energy=-1106.0089111328125 pbc="T T T"
O       13.10730000      22.42980000       3.32801000      -0.02999430       0.00043318      -0.04525480      -0.01690792      -0.00577465      -0.04332670       0.28687119       0.06061024       0.06881583      -3.47513509
H       12.76560000      22.65800000       1.37708000       0.01612380      -0.01903120       0.07168760       0.01289269      -0.02405056       0.07172041      -0.03650104       0.02031545      -0.07810258      -6.88675928
H       12.10480000      21.09310000       4.19782000       0.01540380       0.01610230      -0.03500880       0.01108083       0.01839368      -0.03231753      -0.24278550      -0.08132159       0.01849552      -6.88765335
O       14.49330000      23.84030000       8.57368000      -0.02599200       0.04236420      -0.06249680      -0.02266362       0.04241355      -0.05940573       0.07215188       0.01770884      -0.05261471      -3.48858595
H       14.14250000      25.66360000       7.55344000       0.01776220      -0.08007690       0.04486740       0.01630691      -0.07493706       0.04216262      -0.01978251       0.01543823       0.02464420      -6.90180874
H       14.00300000      22.46410000       7.34701000       0.01716060       0.04047230       0.02469160       0.01141844       0.03597461       0.02521792      -0.05262814      -0.03117345       0.02514345      -6.90282631
O        4.52184000      25.65410000       1.37272000      -0.08055780      -0.01988830       0.04247120      -0.08862174      -0.01390076       0.03886219       0.02970709      -0.00183791      -0.04060264      -3.49174356
H        2.82563000      24.83920000       0.61538200       0.05391040       0.03680170       0.02431810       0.06129597       0.02816857       0.02569650      -0.03106190      -0.01622869       0.04397332      -6.89816380
H        3.87564000      26.02240000       3.23314000       0.02401000      -0.01491790      -0.06423680       0.02483238      -0.01419245      -0.05907952      -0.00390143       0.01010431      -0.00107827      -6.90344715
O        9.68477000       1.37939000       1.87607000      -0.05066560      -0.09706410      -0.00532333      -0.05517211      -0.08759937      -0.00826470      -0.00854777      -0.04974174      -0.00416980      -3.49081612
H       10.09050000      -0.98449000       2.04637000      -0.01923750       0.11476100      -0.00084232      -0.02176625       0.10349782      -0.00323927      -0.00480684       0.05887946      -0.01458376      -6.89775848
H        7.70153000       1.42007000       1.41047000       0.06328810      -0.01317410       0.01581290       0.06596598      -0.01017393       0.01773549       0.00770356      -0.01809266      -0.00010844      -6.90331602
O       20.88520000      13.38490000      20.47450000      -0.03024280      -0.03123070       0.01349130      -0.02421138      -0.03000414       0.01503567      -0.00221949      -0.02575390       0.07355756      -3.48550773
H       19.49040000      12.45010000      21.30130000       0.03069610      -0.00900676      -0.00206765       0.02601539      -0.00804477      -0.00487791       0.01416978       0.02069862      -0.04193219      -6.89626408
H       20.07500000      14.94410000      20.69340000       0.00790657       0.03943240      -0.00817767       0.00362558       0.03902335      -0.00697971       0.00849447       0.01348280       0.01885280      -6.90483189
O       22.47280000      21.73270000       7.33467000      -0.02957850       0.04168980      -0.05409660      -0.02876828       0.03956291      -0.04896763       0.01171588      -0.00258547      -0.01003796      -3.48697877
H       21.39650000      21.84960000       5.65145000       0.03808410      -0.00746330       0.05576290       0.03584118      -0.00709599       0.05321221       0.00400701       0.02373876      -0.01091359      -6.90328550
H       22.92440000      23.54870000       7.67832000      -0.01114140      -0.04142050      -0.00489491      -0.00662899      -0.03304371      -0.00985059      -0.01055509      -0.01003954       0.02385346      -6.90344143
O       16.26450000      16.54420000       4.16331000      -0.03289140      -0.02032390       0.04863210      -0.02666790      -0.03223645       0.05767793      -0.02788407      -0.00383116      -0.10789665      -3.48670673
H       12.88570000      14.56010000      -0.93643200       0.00213604       0.00460721       0.00610524       0.00000000      -0.00000000       0.00000000       0.00398250       0.03508284       0.05537809      -6.90360022
H       15.53660000      15.68930000       5.81546000       0.02925420       0.02395310      -0.05455400       0.02873258       0.03248451      -0.05176997       0.02489167      -0.03248861       0.05160079      -6.89811707
O       14.29960000      10.90400000       2.78886000      -0.04201650      -0.09892980       0.01597260      -0.03735779      -0.09191360       0.02081041       0.03518244      -0.00107363       0.02895511      -3.49515772
H       15.46010000       9.88843000       4.01768000      -0.03239990       0.03120880      -0.03787130      -0.03239044       0.03095946      -0.03314986       0.00652571       0.01093496      -0.00505570      -6.90596819
H       12.70550000       9.41843000       2.40568000       0.07522760       0.06425510       0.01861490       0.07032731       0.05943467       0.01389537      -0.04025361      -0.00160745      -0.02270819      -6.89937019
O       24.86090000      19.05810000      19.63820000       0.04158400       0.02116490       0.02504820       0.04282677       0.02048115       0.02717379      -0.03742575       0.06603032      -0.07615466      -3.48352647
H       24.74860000      20.40260000      21.04610000       0.01305130      -0.04071880      -0.04455030       0.01029085      -0.03882127      -0.04026975       0.00635541      -0.04242145       0.09288841      -6.90084028
H       26.74390000      18.60040000      19.36270000      -0.05518060       0.02301950       0.01905810      -0.05227718       0.01922137       0.01823481       0.03932278      -0.03034504      -0.01313785      -6.89570332
O       12.16400000       6.01892000       1.03858000       0.02570170      -0.03467340       0.03164800       0.02877396      -0.03171883       0.03007861       0.07621020       0.12951604      -0.10236726      -3.47706938
H       13.78780000       5.20052000       1.83717000      -0.04097670       0.02869150      -0.02689030      -0.04271125       0.02433991      -0.02694077       0.00446653      -0.14802456       0.11647148      -6.89472103
H       10.83170000       4.83893000       1.60931000       0.01886250       0.01037380      -0.00453935       0.01779816       0.01085633      -0.00269691      -0.07472305       0.01530677      -0.00831141      -6.90617371
O       20.47590000       7.26906000      15.01780000      -0.02397610      -0.00771282       0.01210780      -0.00751428      -0.00731335       0.00570060       0.12941898       0.05077707      -0.03996403      -3.48509932
H       19.52140000       7.51629000      16.76520000       0.02812940      -0.03241690      -0.05833310       0.02104049      -0.02772582      -0.05255195      -0.03687797      -0.08181497      -0.06516407      -6.89819241
H       20.30000000       5.77668000      13.78750000      -0.02310350       0.02059450       0.05191520      -0.02705790       0.01689427       0.04862889      -0.09364583       0.03211363       0.10241246      -6.89597034
O       18.91630000       1.99055000      12.14080000      -0.00097709      -0.05355340      -0.07403730      -0.00750063      -0.05092672      -0.05463777      -0.00156599      -0.04646610       0.03818393      -3.49580860
H       18.39900000       0.64635300      13.36960000       0.00306655       0.01914100      -0.03074890       0.00345505       0.02541010      -0.02764422       0.00290892       0.01915219      -0.01331870      -6.89920998
H       18.86670000       1.04344000      10.02840000      -0.00219810       0.03577800       0.11050700       0.00107574       0.03242755       0.08550238      -0.00134315       0.02731339      -0.02486537      -6.89769268
O        4.50036000      24.04070000       6.98324000      -0.07146840      -0.06931680      -0.00433292      -0.06829435      -0.06535984       0.00157939      -0.01432938      -0.06345248      -0.01339534      -3.49489260
H        4.38860000      22.27850000       7.77911000       0.00665193       0.03763020      -0.01961830       0.00791776       0.03734227      -0.01921477       0.01409504       0.03162033       0.01261640      -6.89844656
H        6.02878000      24.69800000       7.36479000       0.05823520       0.02975870       0.02486270       0.06120457       0.02332115       0.01524796      -0.00413160       0.04322927       0.00156173      -6.89730215
O       26.01880000      16.49520000       6.97149000      -0.02081440       0.00416085      -0.04335190      -0.03207785      -0.00269509      -0.04119432      -0.03250363       0.03189625       0.13480976      -3.48795962
H       24.79610000      17.69400000       6.10582000       0.02814850      -0.02970070       0.02521800       0.02918223      -0.02743047       0.02063234      -0.03107969       0.00787126      -0.06454240      -6.89573336
H       26.19740000      15.06330000       5.73361000      -0.01239550       0.02828170       0.02323490      -0.00717677       0.02831499       0.02204872       0.06412871      -0.03555145      -0.06934787      -6.90114403
O       14.17430000       3.57826000      20.06720000      -0.03442910       0.01682620      -0.00020888      -0.03044032       0.00868695      -0.00043834       0.20784497      -0.04250853       0.19363505      -3.47929907
H       15.34570000       5.04533000      20.09290000      -0.02691450      -0.01706400       0.00161110      -0.02321712      -0.00699059       0.00000398       0.00221161      -0.00958662      -0.01243928      -6.90663767
H       12.26270000       4.12546000      20.25300000       0.06221750      -0.01365450       0.00151438       0.05740346      -0.00949440       0.00692795      -0.20928180       0.05096737      -0.17892899      -6.88366079
O        5.69778000       8.68606000       4.65745000      -0.02186640       0.04373080      -0.03802060      -0.02443097       0.04148889      -0.03699027       0.02649511       0.03739466       0.02490356      -3.49018550
H        5.04625000       8.84744000       2.73513000       0.01925230       0.00744318       0.08147190       0.02165094       0.00486787       0.08075336      -0.01810709      -0.04450587      -0.00970397      -6.90060091
H        5.43559000      10.37990000       5.60628000       0.00642114      -0.05243830      -0.03567090       0.00333079      -0.04913234      -0.03464606      -0.00617776       0.00254273      -0.01490015      -6.90838099
O       19.18630000      25.00580000       0.65269700      -0.03595940      -0.08281780      -0.03899840      -0.02925043      -0.08169290      -0.03747625      -0.00103077       0.01152116      -0.06180388      -3.49439287
H       18.01520000      24.53370000      -0.83803800       0.02145820       0.03257230       0.02911780       0.01686186       0.03205340       0.02650884      -0.01013256       0.02309400       0.03427821      -6.89922523
H       19.33080000      23.08490000       1.00673000       0.00944482       0.04595240       0.01220880       0.00980621       0.04250840       0.01229464       0.00344519      -0.01653402       0.04452265      -6.88919115
O       24.29260000       1.07607000       0.55951800       0.02088590      -0.00836896       0.04901130       0.00558442      -0.00791883       0.01311256       0.03746682      -0.00921282       0.14319448      -3.48220038
H       22.72830000       0.13182200       0.40637800       0.00448417       0.01025930      -0.00201103      -0.00448560       0.00676535      -0.00323555      -0.02265296      -0.03059242      -0.00427674      -6.90338278
H       24.86360000       0.69115000       4.01308000       0.01186100      -0.00572265      -0.00779820       0.01791045      -0.00319595       0.03579313      -0.01235669       0.03820809      -0.13829508      -6.89846230
O       17.28090000       4.46366000       2.64015000       0.06841320      -0.04822040      -0.06864310       0.06665200      -0.04647764      -0.06497532       0.08276790       0.07623566      -0.12471980      -3.48648930
H       19.18220000       4.86596000       2.63534000      -0.04889940       0.00562918       0.00718179      -0.04702090       0.00348651       0.00962904      -0.08626971      -0.07203174       0.11619990      -6.89596319
H       17.55340000       3.09018000       1.14649000      -0.01903410       0.04028080       0.05980920      -0.01986521       0.04250496       0.05534296       0.00368469      -0.00622288       0.00589444      -6.90218687
O        6.22723000       1.40214000      11.16370000      -0.00348750      -0.07823950      -0.01289190      -0.00757162      -0.06168837      -0.00236235      -0.04743338       0.03906986       0.02666812      -3.46583915
H        6.87040000       3.04573000      11.61470000       0.00957946      -0.02376770       0.01968910       0.01387781      -0.01928111       0.01302075      -0.00005967      -0.01701285      -0.03351750      -6.84664726
H        6.79487000      -0.43349800      11.80320000      -0.00426691       0.09530390      -0.00708962      -0.00502460       0.07783274      -0.00843875       0.05010749      -0.06408718      -0.01167733      -6.89395142
O        0.34088400       6.22179000       5.95320000      -0.03090590       0.07749790       0.04277890      -0.02226814       0.07787496       0.04391686       0.16489193       0.06630360       0.02577601      -3.47953248
H       -0.63584000       6.76009000       7.60407000       0.03091800      -0.02036150      -0.04159000       0.02957241      -0.02056832      -0.04669667      -0.12043530      -0.11075068       0.06273394      -6.89461708
H        0.85532700       8.02363000       5.38998000      -0.00542809      -0.05892270       0.00841703      -0.00954379      -0.05223576       0.00886227      -0.04445685       0.04533627      -0.08877723      -6.90245342
O       -0.26619500       1.03395000       6.31120000      -0.00284006       0.02037040      -0.01772020      -0.01498833       0.00720638      -0.02939259      -0.07515413       0.03740606       0.01101870      -3.49460220
H       -0.41546300       2.95589000       6.04333000       0.02139260      -0.02747940       0.02183810       0.02147275      -0.02966040       0.02619891       0.01439080      -0.00009578      -0.00396925      -6.90272665
H        1.12864000       0.35473900       7.60760000      -0.02637600       0.02268750      -0.05299940      -0.02515399       0.02425592      -0.04515635       0.05492095      -0.04093378      -0.00786133      -6.89483643
O        7.08287000      18.71470000       0.90171100      -0.02805220       0.07515510       0.04172330      -0.03526314       0.06499507       0.04067250      -0.01022914      -0.03638886      -0.00018384      -3.49569464
H        7.12739000      19.92840000       2.68713000      -0.01160400      -0.05169680      -0.08495850      -0.00733354      -0.04881980      -0.07793072       0.01479246       0.01722620       0.01340678      -6.90197802
H        5.45451000      19.17070000      -0.09509700       0.04287590      -0.00170788       0.03540660       0.04726817      -0.00902881       0.03811895      -0.00713769       0.01587321      -0.01455272      -6.90124464
O       24.60430000      10.51160000      16.77250000      -0.04836150       0.01804670       0.01038240      -0.04910327       0.01700461       0.00649407       0.05574583       0.00700485      -0.10216963      -3.48842216
H       24.52000000      12.02040000      18.03870000      -0.02086920      -0.05107470      -0.04050760      -0.01647612      -0.05123759      -0.03814949      -0.00444749       0.02881854      -0.01157523      -6.89788055
H       22.78600000       9.78414000      16.09050000       0.07329760       0.04266410       0.03601890       0.06553461       0.03840876       0.03653704      -0.05049735      -0.03604476       0.11379886      -6.89576530
O       24.15600000      13.55630000       2.94016000      -0.00124145      -0.06610580      -0.06941130      -0.00750908      -0.06798364      -0.07154520      -0.02972724       0.02405380       0.03496037      -3.49303174
H       23.02680000      11.99910000       2.58228000       0.01796330       0.04734250       0.01951630       0.01986656       0.04283863       0.02140489       0.02104235       0.02573723      -0.06742787      -6.89049435
H       25.22410000      13.15560000       1.35180000      -0.01639010       0.02052640       0.04527630      -0.01299228       0.02226481       0.04572991       0.00929771      -0.02668491      -0.00285258      -6.90027857
O       16.55700000      17.34620000      19.63770000       0.01184540      -0.04132280       0.01486760       0.01393073      -0.03820258       0.01189142      -0.06484605       0.02720232      -0.15728387      -3.48719978
H       15.51480000      18.76400000      19.16890000      -0.00551434      -0.01039800       0.02331520      -0.01058161      -0.01017813       0.02118320       0.06706487       0.02967734       0.03105762      -6.89163637
H       16.19410000      16.08830000      21.03540000      -0.01089210       0.05320630      -0.02440330      -0.00662340       0.05056520      -0.02078800      -0.00286046      -0.05425420       0.12962310      -6.89794111
O       14.86970000      22.95540000      14.35510000       0.00831766      -0.00846454      -0.07825280      -0.00473258      -0.01006428      -0.07302797      -0.01878649       0.04205539       0.05302839      -3.48508334
H       14.96870000      22.21120000      12.46180000      -0.00520757       0.03428090       0.07270970      -0.00333935       0.02868715       0.06870177       0.02897506      -0.11340022      -0.02967244      -6.89643335
H       14.31260000      24.70260000      14.05970000       0.00144527      -0.02343620       0.00294985       0.00385297      -0.01933106       0.00528097      -0.00919150       0.07153011      -0.03798264      -6.89711285
O        4.65150000      18.69850000       8.44589000       0.07492560      -0.04843840       0.02729770       0.04738381      -0.04467630       0.03062750       0.03519134       0.03438452      -0.05042628      -3.49155545
H        6.68336000      17.53960000       8.72949000      -0.10503000       0.04842890      -0.00823246      -0.07574552       0.03750249      -0.01268892      -0.02511324       0.01149474       0.00669435      -6.90238142
H        3.11625000      17.79260000       9.15566000       0.03682390       0.00432198      -0.02611040       0.03784904       0.01480764      -0.02206020      -0.01972810      -0.03794476       0.03887986      -6.89611197
O        7.19780000      18.06420000      13.91540000      -0.02056680       0.00559025      -0.05226930      -0.01434158       0.00976580      -0.03938377       0.04414904       0.06636881       0.04687661      -3.49478722
H        5.78145000      17.87340000      12.55380000       0.04044080       0.00154281       0.07057010       0.03621295       0.00152490       0.06292955       0.00502452      -0.04041913      -0.04181328      -6.89454937
H        6.96015000      17.66040000      15.74630000      -0.01568390      -0.00587195      -0.03334590      -0.01754383      -0.01024423      -0.02462272      -0.04801380      -0.02545494      -0.00540789      -6.89642477
O       10.48940000      10.69570000      21.21720000      -0.03957890      -0.07856750       0.04236080      -0.03828564      -0.07797655       0.04152157      -0.04316830      -0.17997777       0.09430513      -3.47921705
H        9.88906000       9.01435000      20.33520000       0.02057790       0.05696070       0.02755240       0.02102090       0.05605414       0.02462674       0.06123994       0.22327004      -0.03311585      -6.88700151
H       10.04300000      10.18460000      23.12430000       0.01882950       0.02506130      -0.07042100       0.01738053       0.02231184      -0.06592085      -0.01117463      -0.02953939      -0.04709505      -6.90060616
O       22.08440000       8.04121000       1.24226000       0.06322270      -0.00783395       0.08583100       0.06268717      -0.00679157       0.08234538       0.13860233      -0.00609171      -0.04106063      -3.48788142
H       22.38860000       8.34446000       3.18301000      -0.03142290      -0.00512289      -0.05556670      -0.03040755      -0.00385461      -0.05377322      -0.04442560       0.03952979       0.04932036      -6.89383411
H       23.82970000       7.24914000       1.18005000      -0.03071880       0.00604147      -0.02774800      -0.03082807       0.00965685      -0.02585163      -0.08864014      -0.04602782      -0.00049763      -6.90459633
O        6.27945000      10.53320000      10.24270000       0.00760706       0.06697950       0.01058810       0.00813824       0.05807857       0.01972029      -0.01485498      -0.04755953       0.06004300      -3.49446774
H        5.01914000      11.98430000      10.33170000       0.03043210      -0.03830500       0.00386316       0.02806360      -0.03602445      -0.00308263       0.01907005       0.00530502      -0.03847173      -6.89806604
H        7.85372000      11.34740000      10.99770000      -0.03562390      -0.02408130      -0.01079500      -0.03175349      -0.02130253      -0.01563369      -0.01035983       0.04651004      -0.02781766      -6.89597845
O        9.51877000       1.93020000      15.85430000       0.11626500      -0.00781879       0.04730850       0.10526884      -0.02096863       0.05061888      -0.09241218      -0.03913135       0.01526902      -3.49370360
H       10.19770000       0.20840300      16.81510000      -0.02854600       0.05943000      -0.04192830      -0.02813789       0.06480850      -0.03962281       0.01405450       0.01361266       0.00531297      -6.90512657
H       11.32520000       3.11692000      16.05280000      -0.08183160      -0.05341000      -0.00133506      -0.07859819      -0.05325433      -0.00404463       0.08933018       0.02968334      -0.01993966      -6.89600325
O        5.38926000       6.43653000      17.97500000       0.01301160      -0.02915330      -0.07228860       0.00747507      -0.02663808      -0.07616453      -0.03222230      -0.05961126      -0.03173951      -3.48892188
H        7.12219000       5.90323000      18.13440000       0.00152232      -0.00027726       0.01689600       0.00346865       0.00181597       0.01779104       0.06176106       0.05571879       0.00925390      -6.89512825
H        5.32795000       5.87399000      16.06270000      -0.01372970       0.02521130       0.04891880      -0.01260248       0.02331343       0.05099883      -0.03643494       0.00424090       0.03092289      -6.90451241
O       15.08960000      24.05120000      22.72000000      -0.06590880       0.08251340       0.04225390      -0.05473723       0.09479977       0.04403714       0.04131542      -0.00336763       0.01984382      -3.49279141
H       14.74880000      25.84670000      21.93720000       0.01297080      -0.05357660       0.01430870       0.01275582      -0.05548326       0.01638608      -0.02404262      -0.01610310       0.00853894      -6.90298605
H       16.03230000      23.10960000      21.64560000       0.04440580      -0.02737000      -0.05228440       0.03975029      -0.02913274      -0.05346905      -0.02304924       0.02270735      -0.02896161      -6.90089083
O        0.04917300       5.56384000      18.43930000       0.04501730       0.02786620       0.01066570       0.03971500       0.02472206       0.00865589       0.00832199      -0.02835790      -0.03283038      -3.49435639
H        1.95599000       5.43100000      18.31590000      -0.03863950      -0.00107174       0.00047096      -0.03386993      -0.00033780       0.00142320      -0.01139415       0.02478292       0.00405448      -6.90068007
H       -0.10663800       7.45051000      18.54460000      -0.00541226      -0.02993480      -0.00982217      -0.00596499      -0.02696326      -0.00947607       0.00374272      -0.00385345       0.03283321      -6.90395355
O       11.34600000      19.61050000      22.51480000      -0.07157600      -0.08571670      -0.01488530      -0.09093462      -0.07340270       0.02030654      -0.14830105      -0.23318702      -0.00377247      -3.48055339
H       10.30610000      18.77480000      23.95410000       0.12231100      -0.08703260       0.11039100       0.07458580      -0.04161064       0.04024968       0.01967994      -0.00091353       0.03337233      -6.89641428
H       11.82710000      21.06990000      23.27080000       0.03277410       0.08684790       0.02772750       0.04220611       0.07392174       0.01804461       0.12738988       0.23880404      -0.02784497      -6.88411427
O       17.82560000      10.16340000      24.22600000      -0.02187910      -0.07481940       0.01244970      -0.01779446      -0.06838660       0.02643058       0.02212861       0.05185819      -0.02623867      -3.48807192
H       16.02810000      10.22190000      24.95260000       0.04755070      -0.00171946      -0.00551153       0.04863350      -0.00260342      -0.01259123      -0.03716172      -0.01620904       0.02027947      -6.90201330
H       18.44230000       8.20312000      24.47620000      -0.02598890       0.08595150      -0.00441271      -0.02774930       0.07787324      -0.00698104       0.01841963      -0.03676296       0.00245919      -6.90541601
O       26.33410000      18.29170000      14.42130000      -0.00002863       0.08301500      -0.01092880      -0.00280568       0.08384641      -0.00814030       0.04765563       0.01785277       0.06456216      -3.49284363
H       25.51390000      19.66240000      15.52360000       0.01618100      -0.04046840      -0.02262130       0.01896700      -0.04133382      -0.02521713      -0.01867378       0.00900375      -0.01094002      -6.90196705
H       27.19340000      19.45730000      13.11860000      -0.02199110      -0.03697020       0.03595580      -0.02182102      -0.03613657       0.03374895      -0.03851114      -0.02826797      -0.05631858      -6.89655018
O       18.03730000      22.67680000      18.92020000      -0.03228170      -0.01947640      -0.06181440      -0.02751605      -0.02018116      -0.06193889      -0.02408733       0.05050397       0.21566671      -3.48206806
H       16.43840000      22.36650000      17.73930000       0.06061770       0.01753650       0.02817290       0.06136164       0.01590360       0.02831389      -0.04359604      -0.00808558       0.01040992      -6.90133905
H       19.52690000      22.48550000      17.77040000      -0.02950610       0.00572007       0.02501220      -0.02673600       0.00327767       0.01951274       0.07099214      -0.04058564      -0.22310747      -6.88608408
O       22.67590000      23.39890000      12.59050000      -0.00130673       0.06145220       0.02714130      -0.00285549       0.05533263       0.02077445       0.07917176       0.20894371       0.05345988      -3.45252609
H       21.82980000      25.17450000      13.43000000       0.01991570      -0.09366920      -0.03864890       0.02001173      -0.08241002      -0.03693469      -0.07682638      -0.20401606      -0.05170315      -6.90171003
H       21.92470000      21.72080000      12.35230000      -0.01267820       0.03423720       0.01044710      -0.01162464       0.02368212       0.01147218      -0.01517984      -0.02374746      -0.07067430      -6.86823988
O       13.59660000      15.79560000       9.47223000      -0.03938060       0.05211410       0.01809600      -0.03820474       0.04210647       0.01637031       0.14212152       0.04038269       0.12084842      -3.48566628
H       13.21800000      17.77050000       9.64796000       0.00725835      -0.08235630       0.00037828       0.00651746      -0.07462099      -0.00175188      -0.03278994      -0.07480910      -0.00832047      -6.89010334
H       12.23640000      14.75230000      10.40260000       0.03841410       0.03096590      -0.01200320       0.03987419       0.03221238      -0.01553624      -0.10714689       0.03114133      -0.11232443      -6.89611197
O        9.69212000       4.65098000      22.14590000      -0.05916520      -0.01862580       0.05864510      -0.04608948      -0.01921955       0.05271117      -0.02002027       0.02387974       0.04204602      -3.49460316
H       10.79280000       5.27606000      23.60760000      -0.02371870      -0.01760870      -0.02316640      -0.02817268      -0.01393234      -0.02330948       0.02038397       0.00100636      -0.03368438      -6.89975977
H        8.00600000       3.69080000      22.99770000       0.08252220       0.04160530      -0.03761670       0.07503857       0.04144111      -0.03098391       0.00225399      -0.02452264      -0.00834847      -6.90284061
O        3.11908000      13.81770000      14.80710000      -0.09448860      -0.02067070       0.02760420      -0.08907695      -0.02114438       0.03033293      -0.09745388      -0.02786153       0.01966491      -3.48876643
H        2.32555000      15.39200000      15.67350000       0.01815400      -0.03806650      -0.03731600       0.01529203      -0.03782584      -0.03909519       0.09190572      -0.00227235      -0.02353986      -6.87985182