3
TotEnergy=-137.97179156 cutoff=-1.00000000 nneightol=1.20000000 method="xtb" pbc="F F F" Properties=species:S:1:pos:R:3:force:R:3:Z:I:1
O    0.00000000   0.00000000   0.00000000   0.00000000  -4.45145469   0.00000000  8
H    0.75700000   0.58600000   0.00000000   3.33268343   2.22572734  -0.00000000  1
H   -0.75700000   0.58600000   0.00000000  -3.33268343   2.22572734  -0.00000000  1
