192
Lattice="23.95001 0.0 0.0 -1e-06 23.95001 0.0 -1e-06 -1e-06 23.95001" Properties=species:S:1:pos:R:3:force:R:3:predicted_forces:R:3:forces:R:3:energies:R:1 TotEnergy=8336.10973295 cutoff=-1.0 nneightol=1.2 method=delta delta_definition=dft-minus-xtb xtb_energy=-9439.61789295 dft_energy=-1103.50816 predicted_energy=8450.5087890625 energy=8463.109375 stress="-0.026746317744255066 0.000636989832855761 -0.00048587226774543524 0.000636989832855761 -0.022616075351834297 0.0012609455734491348 -0.00048587226774543524 0.0012609455734491348 -0.026008788496255875" free_energy=8463.109375 pbc="T T T"
O       20.17099800       2.88958800      15.71182000       2.87711077       1.75712394      -2.84336579       2.60208488       1.55342817      -2.57424974      -0.31680626       2.76680994      -3.55426836      26.99002838
H       19.66609800       3.71979800      17.33952000      -1.03231750       1.97879786       3.56005800      -0.88671172       1.76780236       3.17661810       1.50488734      -3.80546188      -0.18785900      52.73102570
H       19.29609800       1.23103800      15.47982000      -1.85337658      -3.73964137      -0.70419442      -1.65570402      -3.33121061      -0.60898924      -0.84362471       0.67963493       3.92664266      52.68118286
O        0.53158100      22.78029000       9.42096000      -3.79743253       2.68991053       1.96199684      -0.66552424       3.64214420       3.62944508      -2.78696394      -3.82116938       1.36903095      26.90858650
H        1.91848100      21.89049000       8.82584000       4.01570807      -2.60044772      -1.74960599       3.75361919      -2.24941230      -1.52021992      -0.93396914       3.84958076       0.23926139      52.63164139
H       23.08209100      22.11399000       8.38379000      -0.25304714      -0.16000932      -0.20527770      -3.01265049      -1.29740357      -2.19780016       3.70105314      -0.08781399      -1.60723972      52.62015152
O       10.48430000       0.63676600      14.91700000       4.25303961      -0.30569224      -2.21107989       3.18843126       2.58612108      -1.95771551      -4.03408480      -1.24736810       2.22438145      27.01851082
H       10.81429900      22.63224000      15.01440000      -0.01185554      -0.16014980       0.01346968       0.58924425      -3.09467006       0.08909867       0.22457299       1.55541086      -3.81093073      52.64437103
H        8.86975000       0.85190000      15.68400000      -4.31222080       0.52580602       2.07760486      -3.83684206       0.63254571       1.84884000       3.73756957      -0.27007714       1.45944381      52.70024872
O       18.81641800      14.27305900      23.85195500       1.79749859      -3.91351538       3.62020693       1.57034397      -3.59603310       3.24853230      -4.39754963       0.78416038      -0.61899889      27.03733063
H       19.55928800      14.91519900      22.28931000       1.86233245       1.47793519      -3.84976666       1.65658188       1.41952157      -3.42502022       1.76033378      -3.78324509      -0.65066421      52.69451523
H       17.27594800      15.32741900      23.91659800      -3.66500231       2.41565336       0.17538992      -3.24923325       2.19062424       0.20114842       2.79277229       2.86401749       1.35628724      52.76327133
O        9.14624100       4.97529000      21.60750000      -4.79505339      -1.92102030       1.04994009      -4.21661186      -1.74735618       0.90565813       4.49951553      -1.73735154       0.43934238      26.99228096
H       10.19950100       6.36719000      22.42160000       2.21624375       3.00000231       1.76781052       2.03343797       2.62970877       1.58728921      -2.12737370       0.26414371      -3.58009911      52.64736557
H       10.43790100       4.46909000      20.25320000       2.41669132      -0.96782244      -2.59652378       1.95705938      -0.79801273      -2.18364525      -2.35427952       1.45776832       3.16422462      52.69308853
O       21.17344000      14.08090000       8.69352000      -4.07314237       0.16604918       1.19452033      -3.63770533       0.07534169       1.06819367       1.79908991      -4.38085222       1.22811997      26.90652466
H       21.74406000      13.02680000       7.11880000       0.95810446      -2.03396477      -2.99526484       0.83855093      -1.80628419      -2.63895845      -3.93661976       1.29532433      -0.44835651      52.67070389
H       22.69374000      14.95890000       9.47523000       3.08382174       1.90894919       1.78055246       2.75588155       1.64926291       1.57718468       2.12125015       2.95197392      -0.87162685      52.61662292
O       14.44609000      22.79810000      11.27900000      -3.53150516       1.37189629       2.66330138      -3.12661839       1.18710256       2.40187645       2.87986112      -2.06546211      -2.06437659      26.74979782
H       16.00939000      23.41510000      10.38790000       3.49290478       1.40481108      -1.94379741       3.10044289       1.22292447      -1.70289564       0.90965867       3.11849213       0.96593952      52.47758102
H       14.43799000      20.72930000      10.61910000      -0.01701456      -2.74389611      -0.80186764      -0.00913275      -2.37788582      -0.74444926      -3.84956980      -1.09331250       1.22422504      52.67512131
O        1.05247900       1.18471000      14.40770000       0.09323318       1.49131721       3.14625657       3.21133137       1.34587491       0.56210470       4.38304710       1.00327635      -0.90533614      26.92345238
H        1.19653900       0.42321000      12.57470000       0.24652899      -1.44789688      -3.46012665       0.44891348      -1.15034890      -2.93661213      -2.90561938       2.53338146      -0.47448924      52.62125397
H       23.47189600       1.03161000      15.30420000      -0.40988877      -0.10426044       0.24057792      -3.65744233      -0.25158161       2.40020919      -1.50103533      -3.55546951       1.42332745      52.62911224
O        6.29558800      13.35222000      18.18910000      -3.49494518      -1.40321186      -3.00316050      -3.28137302      -1.11878920      -2.75865769       3.01051760      -2.61939502      -2.55933714      26.93419838
H        7.39858800      12.70762000      19.30490000       3.35541837      -2.23334531       3.46314044       3.09262466      -2.00781631       3.17256832      -1.98420191      -0.94587934       3.72032022      52.70328140
H        6.47218800      15.33132000      18.02390000       0.14986974       3.48587782      -0.46377800       0.09184446       3.00193501      -0.47027862      -1.04839063       3.53288555      -1.18122768      52.56422424
O        7.57687600      19.64821800      23.58282000      -4.49709323       3.39358069       0.08572642      -2.54834723       4.06272745      -1.27959108       4.12824535      -1.56248951      -1.74455869      26.93575096
H        8.89075600      18.70881800      23.56512000       4.66235783      -3.45603568      -0.02472717       4.44285631      -3.08474636      -0.13258459      -1.41790128      -0.06924535       3.94346642      52.67490387
H        6.05924700      18.69511900       0.81211000       0.06059880      -0.05545422      -0.03336265      -1.73019791      -1.04732347       1.26911163      -2.56947327       1.60647511      -2.05453444      52.62687683
O       11.77871000       1.81698000       4.90908000       4.29809145      -3.28927496       1.70512661       3.94082642      -2.89588261       1.59293580      -0.51804006      -4.17081356       1.98386157      26.87982750
H       10.07851000       1.56430000       4.56028000      -4.83121888      -0.82604208      -0.96941200      -4.43953133      -0.73234379      -0.86864364       0.73519421       0.80465317      -3.71895123      52.62671280
H       11.99661000       3.66673000       4.53236000       0.55955870       4.07869622      -0.75045249       0.53883958       3.65454388      -0.75477636      -0.17931487       3.40229559       1.79490983      52.60561752
O       13.08591300       5.34069200       1.65598000      -5.07743023       1.68503189       1.91616716      -4.67805958       1.51256466       1.74174309       1.18787217       2.49087524       3.29006958      27.25723267
H       13.47881300       3.99879200       0.47128000       0.86618864      -3.36001270      -2.96392510       0.80831718      -3.03378868      -2.65636444      -3.34551907      -2.23219299       0.43490851      52.66436768
H       14.75083300       5.95039200       2.02668000       4.27345593       1.66087855       1.03393288       3.88539553       1.45348835       0.93966985       3.17024517      -1.88725281      -1.48661947      52.63665771
O       13.45739700      18.62961900       7.78761000       1.70934640       3.65074891      -2.57227894       1.58518386       3.29512882      -2.31406331      -3.30053926       2.79929113      -1.98925042      27.08818817
H       14.21639700      16.86801900       8.16441000       1.54144724      -3.41893354       0.78262344       1.35454941      -3.03493619       0.75252736      -0.66474938      -2.71632099       3.20518398      52.74800110
H       11.72959700      18.51011900       8.73481000      -3.22541559      -0.19700534       1.76084403      -2.74133539      -0.22615960       1.48207355       4.21223164      -0.06589741      -1.05334520      52.76375198
O        1.72639100      16.33180100      10.35949000      -3.95329135      -1.14319600      -1.84467704      -3.64522123      -1.06907797      -1.66432607      -4.48786831      -0.14848790      -1.30912280      26.85269356
H        2.98709100      17.36610100       9.85679000       3.73350370       3.28018454      -1.80648761       3.38438606       2.93454146      -1.59841943       3.04379892      -0.69127375      -2.32995439      52.59576035
H        1.96919100      15.44720100      12.00319000       0.25738618      -2.08498011       3.65276057       0.27971917      -1.89611626       3.24587893       1.34263837       0.88588643       3.49834132      52.61286926
O       23.74793400       2.27304900      22.40334000      -0.46064422       4.68756462      -1.27916826      -2.77908230       4.18540478       0.72150111       2.11166120       2.79838324       2.24088931      26.86412811
H        1.33754900       2.26244900      21.12540000       0.12548418      -0.06768964      -0.12045324       2.45200777       0.01147388      -2.06854010      -1.78232408       1.16444898      -3.07531595      52.60490799
H       23.88574900       0.59270600      22.93104000       0.41316124      -4.70839328       1.41302987       0.34447238      -4.29131031       1.35709214      -0.28894028      -4.00020695       0.75699604      52.63871002
O       21.07902100      23.60080100       4.98729000       1.69353586       4.84513112       5.18146744       1.65869045       4.39285469       4.84277534       3.35260701      -2.25003576       2.04820013      26.93034554
H       22.09032100      22.91330100       3.71019000       2.80130968      -1.92986869      -3.51467814       2.52754354      -1.74925816      -3.21578288      -0.41467118       3.88236427       0.43176943      52.60836029
H       19.75192100      22.75590100       4.50089000      -4.48187936      -2.91906655      -1.66507195      -4.20251513      -2.65418911      -1.51801562      -2.95242906      -1.59205604      -2.56973004      52.69246292
O       16.91412000       9.04476000      22.56900000       0.21366173      -4.43005326       1.09905071       0.05077054      -3.91704845       0.92428887      -0.71193570      -4.40178919      -2.52804375      27.07368088
H       15.77932000       9.34147000      20.82280000      -1.72178398       0.34286998      -2.61252322      -1.45884490       0.30226457      -2.26182914      -1.08507836       3.84256744      -1.24178290      52.75406647
H       17.48322000      10.67970000      23.14740000       1.47688309       4.09039560       1.56384718       1.34790111       3.72989798       1.38052249       1.92134881       0.51157206       3.84406996      52.69619751
O        3.91321100      12.06987900       6.48171000      -2.48895964       1.63769197       3.88553806      -2.16288924       1.41110706       3.46504617      -4.07739782       1.89280319      -2.70202065      27.03128242
H        5.83221100      11.95907900       6.43091000       4.09546242      -0.21092236       0.00766689       3.56195712      -0.18278703       0.06462532       2.01561308       1.84835839       2.94624472      52.65731430
H        3.30261100      11.49847900       4.82761000      -1.59921496      -1.36448561      -3.93195720      -1.41408575      -1.24118519      -3.59258318       2.01842403      -3.71705627      -0.22021335      52.77335739
O       16.95288100      22.28220100      15.56969000      -0.03913532       4.30366315       4.43328879      -0.09836692       3.97751188       3.93565226      -1.38508010       1.37164211      -4.29144621      26.99495316
H       15.63598100      22.36320100      14.05809000      -2.32318685       0.12965297      -2.62118611      -2.13285923       0.10409711      -2.35833693      -1.43808305      -3.30399942       2.39731312      52.72991180
H       17.71628100      20.86320100      15.03119000       2.41728575      -4.43819549      -1.67762554       2.23234653      -4.11032009      -1.56086922       3.00894499       1.87528265       2.08865070      52.63214874
O        6.51747900       1.49641000       4.26392000       3.94581273      -1.63928584       1.46681243       3.63532639      -1.60334277       1.23772001       2.68378496       1.13111210      -4.16821527      27.02914238
H        5.12457900       2.35211000       4.95221000      -3.73330545       2.34632753       2.03498252      -3.40017509       2.11654472       1.86344647       1.49498546      -0.49983251       3.89526892      52.70895767
H        6.29107900       1.15531000       2.30036000      -0.22083010      -0.71015478      -3.52367451      -0.21225804      -0.59822714      -3.05971265      -4.27383041      -0.68084276       0.31989795      52.68003464
O        9.22868900      18.88489900      10.33571000       0.64017051       3.43647379      -4.19236141       0.48110288       3.21936035      -3.81677771       0.75045240      -2.57856417      -3.67367172      26.86988640
H        8.61148900      17.33049900      10.33411000      -2.02136991      -4.98257164      -0.25162865      -1.85588145      -4.64873409      -0.24682301      -1.46393180       3.84930730       0.01438542      52.61610031
H        9.66008900      19.38089900      11.95771000       1.31010408       1.63624847       4.54244244       1.25537729       1.46214163       4.18752384       0.82359266      -1.19441509       3.71667314      52.59299850
O       13.90301200       6.85321200      12.78188000      -2.02780736       4.41546078       3.54253168      -1.70835352       4.07375097       3.22414017       1.38837314      -4.39906740       1.16789639      26.99982643
H       13.18381200       5.62630200      11.79768000      -2.21164654      -3.61816057      -2.91677655      -2.02340388      -3.32379818      -2.68673372      -0.35515615       3.54625726       2.40378571      52.79528427
H       15.70670200       6.46403200      12.50498000       4.16121979      -0.85753928      -0.56892430       3.66335821      -0.78831214      -0.47018290      -1.16967773       0.91992801      -3.63790011      52.60115814
O        6.15260900       0.47515100      22.97327300      -3.83917609      -2.76112063      -0.00157607      -4.17919207       0.33660489      -0.98619092      -3.02166557      -1.04357231      -3.05082560      26.98300552
H        6.76416800      22.72719900      23.61274700       0.07875646      -0.07380877       0.15936592       0.98008645      -3.14931393       1.28171289       3.96969795      -0.78664887      -0.31044927      52.63261795
H        7.52071900       1.63987900      22.89178000       3.70439746       3.07620390      -0.17713701       3.17922926       2.90071940      -0.22136739      -0.78454727       1.72245431       3.53816605      52.67717743
O       20.62649000       5.92186000      20.40600000       1.02695092      -0.32684383      -3.63403453       0.87992847      -0.42256045      -3.29754043       2.12745047      -1.30429137      -3.85824156      26.93547249
H       19.35229000       6.98825000      21.36920000      -2.73014591       2.30718178       1.86180586      -2.40806985       2.03913903       1.67303562       1.08081138       3.19039297       2.58351707      52.72558212
H       21.69529000       4.64314000      21.65200000       1.64978697      -1.96604601       1.77376102       1.43822753      -1.67376137       1.57440257      -3.29702091      -1.75876021       1.29511249      52.60876846
O       20.89904300      11.33038100       4.05749000      -2.69241088      -2.98896111       3.30620333      -2.42951822      -2.57906580       2.99006653      -0.54606426       2.53365159       2.70993519      26.93041229
H       20.05858300      12.81228100       2.99259000      -1.56982255       2.68409357      -1.86251659      -1.35356414       2.36264181      -1.67261779      -3.25649667      -1.38210750      -1.46944356      52.57197571
H       22.64036300      11.45188100       3.44359000       4.26475393       0.26227428      -1.43832696       3.78195143       0.26638520      -1.30109358       3.82979226      -1.32561243      -1.24886990      52.78043747
O        7.69280100      14.07309000      10.05510000      -1.35883366       3.08029779      -3.98780050      -1.25301969       2.86215353      -3.62783718       4.35452271      -0.58976668      -2.27731180      26.97014046
H        6.68498100      14.08039000      11.51970000      -2.84370527       0.25590304       3.86033669      -2.63338614       0.17043203       3.57524300      -3.25087214       2.27974367      -1.39016700      52.70727158
H        8.97930100      12.99629000      10.16160000       4.17406242      -3.34897073       0.05436505       3.85984898      -3.08596230       0.09718814      -1.06190836      -1.54464173       3.70674086      52.67267609
O        6.84521000      18.30210000      18.64510000       4.04571346      -2.78620884      -3.71403286       3.92266774      -2.53770852      -3.24105692      -1.12842989       0.05748594      -4.88472652      27.01330948
H        5.39081000      18.98240000      18.82450000      -5.23102788       2.39521244       0.60820617      -4.91656446       2.26757574       0.56152201      -1.87375355      -2.26528883       2.97976565      52.71828842
H        7.53981000      18.63070000      20.55010000       1.17652124       0.45889366       3.00313706       1.09077585       0.39704391       2.73174143       2.95574522       2.24142742       1.87807417      52.66347885
O        9.57929300       9.20879200       1.80048000       1.34688237       3.23222811       0.11161729       1.25967431       2.83512831      -0.05257237       0.60810328       4.73647308       1.01865280      26.83373260
H       10.56529300       7.35529200       1.58088000       1.48414551      -2.67640392      -0.36712644       1.19831967      -2.32432079      -0.28781655      -3.25980973      -2.41898251      -1.32428336      52.68313599
H        7.48539300       8.78139200       2.01368000      -2.84291924      -0.49674831       0.31307856      -2.39174080      -0.47566438       0.25226775       2.55808377      -2.16577387       0.39500511      52.51528931
O       13.80950100       9.53739000      17.63070000      -0.27983068      -0.96265035       4.77326406      -0.24529992      -0.81507730       4.43995619       4.54293346      -0.61828911      -0.74032462      26.95693588
H       14.21390100      11.18019000      16.97920000       1.07495447       4.30677835      -1.43023189       0.92458344       3.89916611      -1.32984662      -3.12564230      -0.12179574      -2.80849385      52.75574112
H       13.54150100       8.36369000      16.32370000      -0.77412266      -3.36800030      -3.38691632      -0.68831527      -3.03772259      -3.10997510      -1.34740210       0.72471267       3.41682768      52.62099838
O       23.62138900      21.29132100       0.89449000       3.09760985       3.74464919       1.34053204      -0.03179216       5.83387470       0.92337304       1.65018463       0.64173090      -4.22915363      26.85269547
H       22.41546900      20.10842100       0.40669000      -3.42386799      -3.43814100      -1.38771561      -3.16208410      -3.03109646      -1.28561020       1.52120829      -2.16561890       2.52620459      52.64079285
H        1.02420900      20.09182100       1.03909000       0.30071540      -0.33145739       0.01479160       3.16941452      -2.77833557       0.35474661      -3.31061482       1.54636395       1.58113289      52.60723877
O        2.17748000      13.01700000       0.88000200      -2.38334091       3.42625180       1.12640779      -1.88006544       1.32543015       3.93673038       0.23905677      -2.92047167      -3.74251032      26.99479485
H        3.18200000      11.46200000       0.53037700       2.32604375      -3.53824132      -0.85974252       2.03142405      -3.19034529      -0.60959834      -3.22990656       0.42347589       2.64353347      52.70273209
H        2.13343900      13.92749900      23.15998600       0.05686862       0.14938442      -0.25370678      -0.11970945       1.82793188      -3.25392723       2.95318556       2.51152849       1.07881367      52.60744858
O        5.26411000       2.79997000      15.88750000       4.30553648      -2.44441680      -3.23549884       3.92899513      -2.22796607      -2.91280985       4.57118034      -2.56506968      -2.62338877      27.04621315
H        3.48712000       2.79837000      15.64180000      -4.64718059       0.01972825      -0.64865811      -4.24698448       0.01801819      -0.62597632      -1.67157722      -0.48546490       3.68666410      52.71580124
H        5.38923000       3.75938000      17.42320000       0.41388221       2.48655699       3.98340880       0.32416022       2.24495316       3.57133031      -2.88821697       3.05054092      -1.16825116      52.75952911
O       12.36382000       3.67857800      18.54242000      -3.11793378       3.08458316      -0.03986179      -2.79604268       2.75204754      -0.12762976      -2.91534781      -1.97258759      -3.48780918      27.01158524
H       12.06182000       2.49987800      17.08962000      -0.81142025      -2.38107506      -3.14823482      -0.73757941      -2.16931820      -2.84032750       1.03399873      -1.45297313       3.91418171      52.70967865
H       13.75482000       3.35857800      19.48382000       4.17812160      -0.72553232       3.01540298       3.80115628      -0.69832456       2.81674266       1.88246822       3.38303804      -0.41200614      52.62183762
O        3.30351100       3.12267900       7.83321000       1.19035183       1.47208618      -5.13685662       1.07544243       1.30271125      -4.69429970       1.87373447      -1.85187042      -4.04776525      26.92550278
H        4.06504100       3.55097900       9.48001000       1.77668950       1.01836143       3.85809029       1.62142086       0.94033062       3.49408722      -2.57439089       3.33497286       0.56269938      52.76115036
H        1.93579100       1.94417900       8.46851000      -2.98111236      -2.52768722       1.31839833      -2.67021084      -2.27889633       1.18147695       0.87670660      -1.27501464       3.61527586      52.53470612
O       13.99572100      12.09499000       2.51472000       2.66037955       2.40508144       2.10093694       2.52932262       2.24502635       1.94524431      -0.76965177       0.30295336      -4.88272953      27.01692200
H       14.97252100      10.81689000       1.63393000       2.69409041      -2.94772682      -2.00305375       2.40750504      -2.72002959      -1.85682487      -2.46800637      -2.20987558       2.44498301      52.60970306
H       12.32492100      12.15399000       2.39502000      -5.36182005       0.55686563      -0.13164385      -4.92006302       0.38239095      -0.15916574       2.99773383       1.78638542       2.50061750      52.78773117
O       21.95850100      10.25059000      12.16030000      -2.89639105      -1.62253191       3.69933669      -2.59135723      -1.54609108       3.39014268      -2.45944929       4.12310553      -0.68529630      26.81871414
H       23.47850100       9.38609000      11.59450000       3.70245173      -2.29028467      -1.25231007       3.33464241      -2.04277015      -1.15245485       1.84331572      -1.52219152       3.29512954      52.60572052
H       21.72780100      11.75799000      11.19460000      -0.75701031       3.95147804      -2.38068046      -0.67758107       3.57943678      -2.21852946       0.67009240      -2.31859398      -2.60037327      52.62519455
O       11.25440900       3.22941000       9.81009000      -2.28061159       5.71472058       1.92347677      -2.09704399       5.28663254       1.68516064       0.62747097      -2.09064054      -4.50414515      26.95044518
H       11.26660900       2.62401000       8.12905000      -0.02244945      -1.53368479      -4.52389701      -0.03512523      -1.39765811      -4.12327051      -3.44520283       1.39355016       1.55937481      52.63457108
H       11.96390900       1.93151000      10.58170000       2.33822218      -4.21623547       2.61228345       2.17366934      -3.90617228       2.42412519       2.75516939       0.57982904       3.02615595      52.66689301
O        4.21622000       6.20947000      20.88760000      -2.94041309      -0.61929859       3.51053745      -2.62045288      -0.55173463       3.02909279      -3.83582258      -2.53714752      -0.91731822      26.95307732
H        3.67212000       7.32852000      19.40760000      -1.26671248       2.34345829      -3.00315305      -1.14982557       2.05617881      -2.63256025      -0.15389997       3.55381203       1.55083203      52.61433792
H        5.90162000       5.55324000      20.61060000       4.15570189      -1.72628349      -0.57929156       3.77007961      -1.53547013      -0.48385593       3.98576736      -1.11467230      -0.75661725      52.69707489
O        3.62981000       8.78691100      10.50639000      -2.46196005       0.65599185       2.83476517      -2.25535226       0.60675430       2.60141110      -4.04639244       2.22961140       0.31309003      26.90503120
H        4.80121000       7.32241100      10.61369000       2.46945402      -3.27140717       0.46961982       2.14460993      -2.81881094       0.36407381       0.76353151      -3.89876628       1.16480994      52.66783524
H        3.67381000       9.86381100       8.97619000      -0.09628745       2.57600647      -3.34963853      -0.05679772       2.33424187      -2.99482679       3.29634428       1.63270116      -1.52239501      52.58987045
O       15.62080100      14.30090100       7.19029000      -3.70031796       0.88313657       3.01881549      -3.49109173       0.80165505       2.74865627       2.16589999       3.02761388      -3.12804723      26.92216492
H       17.33340100      14.53100100       7.40729000       4.92788013       0.78241017       0.86244999       4.50250149       0.71405196       0.77064741      -3.05650711      -1.95548987      -0.77760428      52.60113144
H       15.23690100      13.57010100       5.54089000      -1.15109131      -1.74765850      -3.90246551      -1.03019166      -1.54092097      -3.55086231       0.96712416      -0.95292675       3.89112878      52.72071838
O        2.94461000      21.71060100      18.30689000      -0.62376137      -6.57810754       0.02257681      -0.60264522      -6.01697636       0.00513459       4.12358665      -0.86334056       2.13075638      27.01562309
H        3.38371000      22.85483100      19.53309000       1.28649324       3.37499685       3.66789193       1.19371486       3.03623438       3.33824253      -1.80205059       3.71518517      -0.40144211      52.67689514
H        2.71591000      22.87629100      17.00209000      -0.66659318       3.24687872      -3.67800656      -0.62257254       2.97440600      -3.39868760      -2.45066357      -2.79989481      -1.89768434      52.66621780
O       18.19939100       2.72874100       7.95189000      -3.45307483       0.24109821      -4.11574293      -3.08816767       0.20104891      -3.81086445       4.04267597       0.23437539       2.08524275      26.75267982
H       18.12579100       3.27734100       9.53789000      -0.46541791       1.83024962       5.09250064      -0.38104093       1.71630585       4.66104412      -3.44618082       1.58193016       1.12806702      52.57210541
H       19.79959100       1.88577100       7.64259000       3.89314112      -2.09493093      -0.93314519       3.49343061      -1.91918635      -0.92161548      -0.50636065      -1.65815949      -3.00237226      52.58700562
O       13.88210700      14.62071900      14.84595000      -2.17224853      -0.37413510       4.41774997      -1.97761226      -0.33520520       4.07257652      -2.38340926       1.69072533      -2.34135866      26.40517998
H       15.39794700      15.59081900      14.68423000       3.89797117       2.57347147      -0.15782715       3.54796243       2.33799219      -0.18052647      -0.03811742      -0.28814560      -0.04753388      52.37677765
H       13.36530700      13.89911900      13.35711000      -1.71522417      -2.19663853      -4.24067050      -1.55277240      -2.03310728      -3.89760828       2.26458645      -0.34222451       3.54266834      52.65939331
O        6.65157800       4.94110900      11.21711000      -3.55752738       1.99239705      -2.46656620      -3.19141865       1.66612852      -2.24128437      -4.33269262      -2.68351221       1.13958454      27.07498550
H        8.57957800       4.84640900      10.65961000       3.41446486      -0.08461020      -1.03917678       3.05811930      -0.07576825      -0.91627759       3.52982831       0.57372326       2.42407632      52.77468872