192
TotEnergy=-1103.41587000 cutoff=-1.00000000 nneightol=1.20000000 pbc="T T T" Lattice="24.28313000       0.00000000       0.00000000      -0.00000100      24.28313000       0.00000000      -0.00000100      -0.00000100      24.28313000" Properties=species:S:1:pos:R:3:force:R:3:Z:I:1
O              19.59370000      2.56031000    -31.85770000      0.02695150     -0.02187660     -0.09360420       8
H              19.69270000      3.64620000    -30.54040000     -0.00776386      0.03806410      0.06990380       1
H              18.56760000      1.10907000    -31.86240000     -0.01538150     -0.01755940      0.01713720       1
O              43.62960000     42.89680000      9.39150000     -0.03614330     -0.01497210      0.02905030       8
H              45.31020000     42.90150000      8.95915000      0.04728380      0.00000784     -0.01775170       1
H              42.82970000     44.16870000      8.40896000     -0.01051200      0.01272910     -0.01122180       1
O              13.76560000     -1.59581000     20.43080000     -0.14346500     -0.00547775      0.07829740       8
H              12.07160000     -2.25050000     19.66760000      0.04307790      0.00725931      0.01345650       1
H              14.75180000     -1.64328000     19.11220000      0.08976860     -0.00627911     -0.10333400       1
O              -4.59788000     -6.22862000     -4.44137000     -0.04419160      0.02068880     -0.05360940       8
H              -4.03693000     -5.88247000     -6.18204000     -0.02038430     -0.00562696      0.01086720       1
H              -3.06926000     -6.54551000     -3.76796000      0.06742500     -0.01865160      0.04809820       1
O               6.38289000     29.08060000     24.74320000     -0.02387240      0.03607560      0.02914340       8
H               7.33527000     30.56250000     25.23570000     -0.00951945      0.01124000      0.00553415       1
H               7.56991000     28.29460000     23.76270000      0.03561310     -0.03837660     -0.03491510       1
O               1.58903000     17.87440000      8.71781000     -0.00907269     -0.03397810     -0.01227350       8
H               1.33846000     16.01510000      8.25925000      0.00613150      0.04391830      0.00498786       1
H               3.03073000     18.45650000      7.67624000     -0.00642880     -0.00330236      0.00930133       1
O              37.51090000     21.46620000     11.95630000      0.09969920      0.05738320     -0.07236360       8
H              38.68970000     20.75540000     10.50220000     -0.03527580      0.04141430      0.03783280       1
H              36.59570000     20.09800000     12.21470000     -0.06651330     -0.08978560      0.03538270       1
O               0.00567800    -22.10990000     13.57070000     -0.05720040     -0.05057880      0.01228280       8
H               0.05724300    -24.01390000     12.87890000      0.00446920      0.06048990      0.02907660       1
H              -1.61507000    -22.03550000     14.79150000      0.04285660     -0.00434162     -0.04003060       1
O              32.71070000    -36.80300000     18.94550000      0.01000640     -0.01475660     -0.00997185       8
H              34.20950000    -37.78080000     18.52130000     -0.00867835     -0.00930077     -0.00345801       1
H              33.45320000    -35.30530000     19.65270000      0.00552109      0.02146490      0.00062992       1
O               7.31762000    -27.58170000    -22.33620000      0.03257760     -0.03253340     -0.01846680       8
H               9.14170000    -27.97870000    -22.62800000     -0.02641360     -0.00509328     -0.00184858       1
H               7.52550000    -26.05900000    -21.49310000     -0.00615226      0.04666670      0.01363000       1
O             -11.94870000      0.88995200      4.30586000     -0.04588150     -0.01946720     -0.04855060       8
H             -13.79520000      1.62507000      4.08796000      0.04293050     -0.02466170      0.01018590       1
H             -11.80870000     -0.40907900      2.80573000     -0.00303449      0.02883670      0.03786730       1
O             -10.88330000     32.57310000     50.39690000     -0.02021200      0.05408260     -0.03046100       8
H              -9.96556000     33.82930000     49.17570000     -0.01641470     -0.02983510      0.03620570       1
H             -12.66060000     33.38070000     50.47730000      0.03706700     -0.02270630      0.00194741       1
O              12.41950000    -30.60390000    -18.89190000      0.08878260     -0.02063590     -0.00218154       8
H              14.42750000    -30.99310000    -19.18830000     -0.07245170      0.02225790      0.00330176       1
H              12.18930000    -31.22030000    -17.16580000     -0.01471800      0.00118212     -0.01445380       1
O              25.80640000     21.45540000     37.26560000     -0.03959360     -0.00143033     -0.04994000       8
H              25.52220000     19.96590000     36.19780000      0.00014773      0.01562520     -0.00866004       1
H              26.75690000     20.68730000     38.47460000      0.03849430     -0.01916390      0.05667070       1
O              -3.98202000      5.98876000     -3.82370000     -0.05021750     -0.00670735     -0.03508400       8
H              -2.48967000      6.80306000     -4.17932000      0.04121810      0.01830210      0.00430057       1
H              -4.15301000      5.42457000     -2.14745000      0.01370110     -0.00797544      0.02654110       1
O             -26.21540000     19.81140000     28.55710000      0.03792290     -0.03012630      0.03106080       8
H             -24.90580000     19.08680000     29.89460000     -0.04237310      0.03008010     -0.04199290       1
H             -26.39610000     21.62700000     28.77430000      0.00906102      0.00029420      0.00728683       1
O             -33.02000000     14.95860000     20.40410000     -0.06604650     -0.04492160     -0.03728920       8
H             -33.22280000     14.91680000     18.51590000     -0.00064247     -0.00764605      0.02746910       1
H             -31.61060000     15.87900000     20.59950000      0.07148320      0.05590830      0.00821514       1
O             -16.04540000     58.48010000    -21.99900000     -0.07338650      0.07244260     -0.02846420       8
H             -16.96150000     58.90740000    -20.43260000      0.02431170     -0.02023530      0.00692415       1
H             -17.32970000     59.85340000    -23.01520000      0.05083750     -0.06188720      0.01057820       1
O              65.34080000     22.09940000     40.51790000      0.07718270     -0.06354960      0.08209230       8
H              64.57860000     22.53800000     39.11260000     -0.05875150      0.02571260     -0.09755340       1
H              66.41010000     20.50920000     40.01010000     -0.02168450      0.04976810      0.01508050       1
O              55.92500000    -22.62650000      4.42569000      0.00856682      0.02248890     -0.03259980       8
H              55.24410000    -22.61450000      6.06509000     -0.02096150     -0.00755838      0.02793470       1
H              55.15300000    -21.18680000      3.50556000      0.00790042     -0.01941840      0.00285708       1
O              33.61630000     16.02230000    -15.49630000      0.01835190      0.07191580      0.00460369       8
H              33.10550000     14.44480000    -15.91110000     -0.02121940     -0.07420850     -0.01729960       1
H              34.16330000     16.02810000    -13.79260000     -0.00222253      0.00183520      0.02117130       1
O             -11.83110000      6.04367000     59.92780000     -0.28014000      0.02968390     -0.11904800       8
H             -12.53080000      4.34320000     60.06160000     -0.00770219      0.00396501     -0.01694810       1
H             -10.49980000      5.85011000     60.59260000      0.29056100     -0.02730700      0.13258700       1
O               9.82372000      2.03047000     -2.77292000      0.01025170     -0.02845250     -0.02915430       8
H              11.18170000      0.80130300     -3.40471000     -0.03041860      0.02687170      0.01841090       1
H               8.20934000      1.42874000     -3.52300000      0.02341900      0.00206990      0.00913677       1
O              41.19520000     10.85130000     23.34290000     -0.00054661      0.03485270      0.03396980       8
H              41.50500000     12.43760000     22.46080000     -0.01271630     -0.01056950     -0.00420116       1
H              41.34290000      9.56835000     22.17540000      0.01146140     -0.03209880     -0.03533770       1
O               0.48247000     62.40010000     30.08720000     -0.01278710     -0.01448940     -0.02177460       8
H              -1.18506000     62.28220000     29.22060000      0.02847370      0.00261319      0.00777770       1
H               1.75037000     61.66270000     28.96330000     -0.01643590      0.00684101      0.00885720       1
O               8.28812000     35.37520000      7.37456000      0.03525580     -0.02908910      0.02567560       8
H               7.33000000     34.41160000      8.76166000      0.03008800      0.02251490     -0.03254070       1
H              10.31330000     34.86760000      7.27856000     -0.07017900      0.00777848      0.00643081       1
O             -14.89970000     20.08630000     18.10450000     -0.06615700      0.04637590      0.00912033       8
H             -16.75340000     20.92770000     18.39460000      0.06941290     -0.02802070     -0.00275839       1
H             -14.56190000     19.08220000     19.57230000     -0.00809573     -0.01259790      0.00642469       1
O              26.81280000     32.43360000     50.43700000     -0.06459320      0.02062350     -0.06007800       8
H              25.48700000     33.10520000     48.95250000      0.05357820     -0.01193210      0.05744710       1
H              27.42910000     30.96700000     49.55560000      0.00549149     -0.00077000      0.00882496       1
O              12.13510000     32.69480000     16.87380000     -0.02414670     -0.04476350     -0.03589200       8
H              11.51300000     31.72770000     15.28460000      0.01881910      0.03196790      0.04331650       1
H              12.44150000     31.33910000     18.15160000      0.00712551      0.02687540     -0.01283660       1
O              -3.68218000    -20.29020000     25.16480000      0.06699010     -0.03135880      0.01777500       8
H              -5.07953000    -21.20780000     25.84410000     -0.00689676     -0.00380117      0.00861486       1
H              -2.07787000    -21.35650000     25.72310000     -0.06050400      0.03618310     -0.01778670       1
O               5.13121000     12.56160000     -1.54391000      0.02258280      0.03209510      0.06269600       8
H               5.97247000     12.12990000     -2.99324000      0.02293590     -0.01961280     -0.04635710       1
H               3.39703000     12.47550000     -1.75547000     -0.04324810     -0.01913370     -0.00546606       1
O               3.56292000      3.18640000     16.92660000     -0.02863830      0.01559670     -0.00452891       8
H               2.07332000      2.87356000     15.66870000      0.02892530      0.00590428      0.02243830       1
H               3.13646000      4.71126000     18.01330000      0.00171691     -0.02631090     -0.01706180       1
O             -34.34120000     54.27380000    -27.89190000     -0.07109100     -0.06467240     -0.00926854       8
H             -35.92020000     52.91860000    -27.95300000      0.06009750      0.04819650      0.00210285       1
H             -34.42250000     54.57240000    -26.12340000      0.00156457      0.00830895      0.01582550       1
O               4.11351000     48.72800000    -15.97950000      0.00131974      0.01643610      0.02738740       8
H               4.44437000     49.54280000    -14.24760000     -0.00312522     -0.03381890     -0.04063240       1
H               4.45077000     46.89300000    -16.14380000      0.00337733      0.02489620      0.01752470       1
O             -28.74360000     36.98750000      3.32346000     -0.03386880     -0.00886595     -0.03012240       8
H             -29.89010000     36.06420000      2.13040000      0.01403250      0.02749050      0.00218849       1
H             -28.27030000     35.47040000      4.10885000      0.02035630     -0.02241670      0.02805120       1
O              21.24940000     34.66600000     13.42200000      0.03041290     -0.00669857     -0.02100570       8
H              20.65140000     35.98340000     12.36970000     -0.02026860      0.01446660     -0.00395231       1
H              22.66890000     34.11490000     12.31080000     -0.01705450     -0.01172610      0.02074630       1
O             -13.70670000    -22.96810000     10.32270000      0.00011864     -0.01383220     -0.02065860       8
H             -14.03590000    -22.84880000      8.41194000      0.01774920     -0.01975450      0.05912480       1
H             -12.96910000    -24.62860000     11.04040000     -0.00622640      0.02592490     -0.03516040       1
O             -45.84130000      7.40836000     20.20280000      0.04140140      0.01209990     -0.04246700       8
H             -44.92900000      8.47459000     18.52340000     -0.02506760     -0.02294680      0.04791090       1
H             -44.47110000      6.71475000     21.25760000     -0.01512650      0.01362900     -0.01381390       1
O             -19.15160000    -15.79700000     35.55500000     -0.04002730      0.05278880      0.00154067       8
H             -18.22590000    -17.24360000     35.36300000      0.03750890     -0.05661800      0.00611700       1
H             -20.81180000    -16.35730000     34.96270000     -0.00486261      0.00488331      0.00248884       1
O              17.11770000     18.01590000     27.19690000      0.03200370     -0.05503030     -0.03209070       8
H              18.69440000     18.87350000     27.08350000      0.00624630      0.03248230      0.01633550       1
H              18.02180000     16.44430000     26.53020000     -0.04018650      0.01942140      0.01973540       1
O             -19.13450000     -0.83606300     44.18730000     -0.05381500      0.01803150     -0.03893100       8
H             -20.56160000     -1.96542000     44.47750000      0.01885820     -0.00194634      0.01168060       1
H             -20.16500000      0.39592700     43.00720000      0.03988670     -0.01298150      0.02336700       1
O              42.65340000      2.74975000     32.27690000      0.01128640      0.05726690      0.03924140       8
H              42.89560000      4.39151000     33.43280000     -0.01375790     -0.06033070     -0.03023810       1
H              41.60860000      3.33486000     30.80630000      0.01815560     -0.00321220      0.01175020       1
O              -7.49665000    -35.71800000    -13.94470000     -0.12936700     -0.13490200      0.01916640       8
H              -6.72545000    -34.57120000    -14.80660000      0.06642370      0.10456100     -0.07646950       1
H              -8.90674000    -36.55260000    -15.32180000      0.06139920      0.02974220      0.05733960       1
O              55.05230000    -20.81960000    -11.94390000      0.01703210     -0.01606350      0.03880880       8
H              56.67250000    -21.85830000    -11.87020000     -0.03644050      0.02247930     -0.00972608       1
H              54.39300000    -20.65860000    -10.14970000      0.00906261     -0.00663472     -0.03221330       1
O              15.72780000     -1.97056000      7.27837000     -0.06286590     -0.02081960     -0.05542330       8
H              16.09760000     -0.33833700      7.87093000      0.00949546      0.02660720      0.00910870       1
H              14.11110000     -1.65936000      6.00937000      0.06281720     -0.01079450      0.05433880       1
O             -38.00500000     -8.58647000     45.56630000     -0.02861680      0.03871660     -0.09825410       8
H             -36.30100000     -8.62241000     45.78290000      0.06924860     -0.00389053      0.00622713       1
H             -38.73240000     -9.26481000     46.91140000     -0.04073900     -0.02543560      0.09331700       1
O               4.32370000    -13.96090000     -7.78974000      0.04114630     -0.02006110     -0.07984490       8
H               6.07320000    -13.25060000     -7.29346000     -0.03406750     -0.01158300     -0.00890287       1
H               4.52678000    -14.65070000     -9.93364000     -0.00008942      0.01988950      0.07853170       1
O              20.54500000     19.14110000     14.54110000      0.00366641     -0.00150674     -0.02976020       8
H              19.94760000     18.86890000     12.65730000      0.02698260      0.01514480      0.04489650       1
H              22.16250000     20.09560000     14.76960000     -0.03031640     -0.01561310     -0.02190120       1
O              10.68270000     17.45410000    -10.32060000      0.07080280     -0.05943380     -0.07017800       8
H              11.26910000     16.14230000     -9.21743000      0.01985860     -0.00958256     -0.00785612       1
H               9.53184000     18.07400000     -9.31459000     -0.09032050      0.06337530      0.06876600       1
O              22.57430000     49.46740000     29.59520000      0.04610210      0.01127940      0.06397420       8
H              21.40560000     50.19760000     30.87100000     -0.01519910     -0.00443505     -0.02083720       1
H              24.10820000     49.54990000     30.82250000     -0.02875780     -0.00946601     -0.04629170       1
O              -0.02459600      6.91989000     10.33440000     -0.01854710     -0.03851590     -0.02328660       8
H              -0.36741200      5.02515000     10.99980000      0.00878817      0.06688420     -0.02853570       1
H              -0.73292000      7.30757000      8.51042000      0.01422390     -0.02727790      0.05282370       1
O              12.72950000    -27.37900000     25.14340000     -0.02004560      0.01940940     -0.00067082       8
H              13.93160000    -28.66370000     25.39970000      0.01656700     -0.01578010      0.00859816       1
H              13.10390000    -26.71510000     23.48090000      0.00513339     -0.00174661     -0.00327767       1
O              -0.49741200     17.03000000     47.99970000     -0.13885400      0.00145408      0.07804850       8
H               0.97267000     17.76560000     47.84080000      0.11637700      0.04928290     -0.02371690       1
H              -1.19929000     18.24990000     49.54950000      0.01889500     -0.05240960     -0.05092040       1
O              33.62720000     40.00760000      1.93364000      0.04792170      0.03924860      0.03477470       8
H              35.07400000     40.83160000      3.22606000     -0.04877440     -0.02234110     -0.03516360       1
H              33.47860000     38.35690000      2.56541000     -0.00060552     -0.02092660      0.01014970       1
O              27.21140000     17.56610000    -31.47700000      0.21884800      0.23154700      0.09499920       8
H              26.20670000     16.44620000    -31.60230000     -0.20074900     -0.22518400     -0.02468070       1
H              27.71160000     17.65590000    -29.53720000     -0.01653600     -0.00116812     -0.07113230       1
O             -19.84510000     42.26520000     -1.70330000     -0.00744485      0.03319420     -0.00184999       8
H             -19.74090000     40.53050000     -1.53325000      0.00760839     -0.05331970     -0.00590300       1
H             -19.19680000     42.71130000     -0.07902700      0.01191150      0.02148140      0.00502027       1
O               5.80598000    -28.85790000     30.86180000     -0.03854150      0.02367960      0.01948200       8
H               6.79647000    -30.25190000     31.24410000      0.03167280     -0.02828370      0.01035020       1
H               6.19183000    -28.29110000     29.20720000      0.00918545     -0.00437625     -0.02441030       1
O              -1.93012000     32.29800000      5.29698000     -0.03458280     -0.02006410      0.00438772       8
H              -0.43853900     32.94370000      4.66097000      0.04569880      0.02203900     -0.01353580       1
H              -2.17619000     30.98990000      4.03394000     -0.01027760     -0.00311318      0.00858602       1
O             -11.02270000    -14.80880000      7.25603000      0.02472490      0.03002240     -0.07843640       8
H             -11.33230000    -15.94200000      8.52581000     -0.00574404     -0.05048520      0.04438600       1
H             -10.41070000    -15.73060000      5.66018000     -0.02025290      0.02478750      0.03733420       1
O              -6.41108000      5.87724000     12.25720000      0.01155920      0.05111290      0.01548410       8
H              -5.88200000      7.74348000     12.57570000     -0.00902374     -0.05688170     -0.00475221       1
H              -5.95214000      4.94169000     13.78460000      0.00143964      0.00682985     -0.00827389       1
O              24.24590000    -12.79290000     -1.46080000     -0.00411650      0.05100890     -0.05523890       8
H              24.16800000    -13.18370000     -3.43006000      0.00190439      0.02276790      0.06665710       1
H              24.15480000    -10.78310000     -1.19425000     -0.00864558     -0.06535330     -0.01186610       1
O              24.32780000     12.99940000     41.22360000      0.01876720      0.01635380      0.02694450       8
H              23.12810000     12.53440000     40.02500000     -0.02857450     -0.01241680     -0.02075320       1
H              25.86230000     12.19350000     40.67700000      0.00805161     -0.00452952      0.00372620       1
O              16.17090000     27.99800000     52.52610000      0.09690940      0.06573070     -0.02070620       8
H              14.75110000     27.10050000     52.70070000     -0.09384910     -0.04588140      0.00099562       1
H              15.91270000     29.72360000     52.00020000     -0.01124110     -0.00991322     -0.00117998       1
O             -10.15720000     13.63270000     15.47770000     -0.03121800     -0.03570510      0.02571470       8
H              -9.30696000     13.57870000     13.88420000      0.00318972     -0.00886188     -0.00825818       1
H             -10.95950000     11.90310000     15.88970000      0.03015780      0.04098490     -0.01733050       1
192
TotEnergy=-1103.34182000 cutoff=-1.00000000 nneightol=1.20000000 pbc="T T T" Lattice="24.57925000       0.00000000       0.00000000      -0.00000100      24.57925000       0.00000000      -0.00000100      -0.00000100      24.57925000" Properties=species:S:1:pos:R:3:force:R:3:Z:I:1
O              20.76950000      2.60129000    -32.90340000      0.13783600      0.12920000      0.02024520       8
H              21.71760000      3.12033000    -31.12160000     -0.04688790     -0.02479590     -0.05012550       1
H              19.71910000      1.33835000    -32.73070000     -0.08445610     -0.10234600      0.02924650       1
O              44.58920000     43.39700000     11.73330000     -0.04053740      0.08185130     -0.06003700       8
H              46.31160000     43.90690000     11.56990000      0.02750650     -0.00947043      0.00411797       1
H              43.83300000     44.99340000     10.53910000      0.00942939     -0.07575880      0.04280770       1
O              13.50420000     -1.13692000     20.69880000     -0.03414150     -0.01194100     -0.00423958       8
H              12.23760000     -2.21076000     19.79490000      0.00794119      0.01375840      0.02214170       1
H              14.90450000     -1.32825000     19.60090000      0.03046750      0.00400695     -0.01436230       1
O              -4.46773000     -8.93205000     -3.45268000      0.08943970     -0.02858960      0.11322900       8
H              -4.86118000     -7.94717000     -4.71859000     -0.03602830      0.06731780     -0.09904030       1
H              -2.93177000     -7.92527000     -2.66982000     -0.05060630     -0.03414320     -0.01245500       1
O               5.44173000     32.94330000     21.34110000      0.04250760     -0.04965360      0.01047470       8
H               6.67703000     33.80640000     20.35140000     -0.00446769      0.02835100     -0.01158680       1
H               6.69875000     31.33730000     21.62360000     -0.04031160      0.03129520      0.01150330       1
O               0.91238900     16.17560000      7.78329000     -0.14581800     -0.02065480      0.05516020       8
H               1.23717000     14.49170000      7.72587000      0.01527550     -0.06163940     -0.00578877       1
H               2.12636000     17.09370000      7.24455000      0.13237800      0.08194710     -0.05418420       1
O              39.03040000     22.78160000     13.37770000     -0.00599928     -0.01937310     -0.03220220       8
H              39.84490000     22.43800000     11.70500000     -0.00720840      0.00665243      0.01624710       1
H              37.92540000     21.28900000     13.50440000      0.01025030      0.00953377      0.00629671       1
O               0.10945100    -24.14680000     13.05240000     -0.05179310      0.06096440      0.03953330       8
H              -0.02986500    -25.93620000     13.30870000     -0.00446819     -0.00061424      0.00313313       1
H              -1.43292000    -23.05740000     14.21800000      0.05203890     -0.05754330     -0.03780960       1
O              32.75260000    -37.28520000     18.05720000      0.01757130     -0.04299280     -0.03046260       8
H              34.03340000    -38.53330000     17.29240000     -0.02626910      0.02398120      0.01965860       1
H              33.79680000    -36.24920000     19.07370000      0.00976787      0.01986930      0.01199460       1
O               7.19078000    -26.52520000    -21.83830000     -0.03514840      0.09215500      0.03395330       8
H               8.28624000    -27.65630000    -22.52230000      0.04966670     -0.02670170     -0.02445230       1
H               7.89490000    -24.55560000    -21.66840000     -0.02487240     -0.06875630     -0.00806578       1
O             -11.91730000      1.37937000      5.16145000      0.05623100     -0.07332120     -0.05533310       8
H             -13.40680000      2.13495000      4.70266000     -0.04971250      0.03036930     -0.01049460       1
H             -11.82020000     -0.05387500      3.63791000     -0.00440308      0.04665400      0.05502600       1
O             -10.63900000     35.04100000     50.21040000     -0.09333700      0.01375840     -0.02437150       8
H             -10.17670000     36.40610000     49.09710000      0.02059660     -0.00290141     -0.00247008       1
H             -12.65530000     35.29020000     49.92390000      0.07112790     -0.02203640      0.02671860       1
O              13.28660000    -30.29160000    -19.21530000      0.00300967      0.02516530     -0.02530830       8
H              14.43830000    -31.51050000    -19.89720000      0.02223020     -0.01078290     -0.00402812       1
H              12.33950000    -31.26490000    -18.09870000     -0.02764020     -0.01423910      0.03369300       1
O              25.13890000     19.41840000     36.62550000     -0.03497050      0.09792160     -0.04319820       8
H              25.45410000     18.70880000     35.05760000      0.01418930     -0.03237880     -0.02200840       1
H              25.35300000     18.51590000     38.01680000      0.02285220     -0.06365320      0.07276230       1
O              -2.69397000      3.99936000     -3.43087000      0.00130455     -0.08200120      0.04282810       8
H              -1.65041000      5.37657000     -3.63769000      0.03899080      0.03708910     -0.00395577       1
H              -1.79951000      2.69952000     -2.11972000     -0.03683910      0.04578860     -0.04251730       1
O             -27.68850000     19.09010000     29.96930000     -0.02705200      0.02579300     -0.02434500       8
H             -26.36860000     18.11060000     30.58980000      0.02900940     -0.02228320      0.01913830       1
H             -27.16990000     20.83610000     30.06930000      0.00296446     -0.00426656      0.00204749       1
O             -32.73840000     12.24130000     21.49640000      0.02011590      0.01351580     -0.01041430       8
H             -32.93100000     12.41090000     19.69430000     -0.02122340     -0.00841313     -0.00792695       1
H             -31.22500000     13.32280000     21.47120000     -0.00322151     -0.00219319      0.02446900       1
O             -15.68300000     60.63490000    -21.65580000     -0.08951730      0.00729420      0.02281950       8
H             -15.37310000     60.79050000    -19.74440000     -0.01120780     -0.00927174     -0.03972970       1
H             -17.82980000     60.53900000    -21.88480000      0.09719810      0.00110758      0.01263930       1
O              66.77790000     23.32770000     41.86800000      0.01053950     -0.05016740     -0.03012270       8
H              65.60900000     23.32670000     40.16310000      0.03739770     -0.01808600      0.05253970       1
H              67.95870000     21.57090000     42.05910000     -0.05519190      0.05948170     -0.02285400       1
O              56.84530000    -21.47040000      3.21526000     -0.08153780      0.01757440     -0.00055797       8
H              54.95290000    -21.09430000      3.91455000      0.07924480     -0.01990510     -0.01667490       1
H              56.64380000    -21.01330000      1.38668000      0.00979007     -0.00155468      0.01805160       1
O              34.41790000     16.97450000    -15.85840000     -0.00406237      0.02542400      0.10064900       8
H              33.93410000     15.31420000    -15.50840000     -0.00833323     -0.04900090     -0.02450500       1
H              34.47090000     17.15230000    -13.72800000      0.01376100      0.02084010     -0.07442530       1