192
Lattice="25.64277 0.0 0.0 -1e-06 25.64277 0.0 -1e-06 -1e-06 25.64277" Properties=species:S:1:pos:R:3:force:R:3:predicted_forces:R:3:forces:R:3:energies:R:1 TotEnergy=-9365.37849909 cutoff=-1.0 nneightol=1.2 method=xtb predicted_energy=-9505.078125 energy=-9575.96875 stress="0.016517862677574158 0.0003688734723255038 -6.618673069169745e-05 0.0003688734723255038 0.01695520430803299 -0.0006658332422375679 -6.618673069169745e-05 -0.0006658332422375679 0.017992373555898666" free_energy=-9575.96875 pbc="T T T"
O       13.10730000      22.42980000       3.32801000      -2.76488478      -2.40654114      -1.43525674      -2.33679199      -2.21716762      -1.31147313      -4.24865437      -2.21900439       2.27342367     -31.39094734
H       12.76560000      22.65800000       1.37708000       0.52332705      -0.56970639       3.66160038       0.47204065      -0.54116130       3.21553659      -1.00630665       0.55512333      -2.03870106     -58.61489105
H       12.10480000      21.09310000       4.19782000       2.21779392       3.00026579      -2.21776129       1.95376790       2.65042496      -1.94263828       5.31697845       1.74697864      -0.21137792     -59.77949905
O       14.49330000      23.84030000       8.57368000      -1.17182689      -2.87134771      -2.87845822      -1.37977386      -0.36140126      -3.67290974      -2.22709942      -3.74016142      -0.04990324     -31.40541458
H       14.14250000      25.66360000       7.55344000       0.07008898      -0.20767302       0.15833101       0.41613740      -2.47630501       1.25202203      -1.56656241       2.40757942       2.55478621     -59.09820938
H       14.00300000      22.46410000       7.34701000       1.13121099       3.09244321       2.74078228       0.96074009       2.77948570       2.42334509       3.78839731       1.31489038      -2.51554918     -59.42102432
O        4.52184000      25.65410000       1.37272000      -1.44720507       0.60210454       3.42577183      -3.75245380      -0.67771256       1.92294014      -0.42951363       4.20760822      -0.69394982     -31.07359886
H        2.82563000      24.83920000       0.61538200       0.26154827       0.13661136       0.08427499       2.68801498       1.25750184       1.24583840      -1.89773917      -1.30045366       2.77324438     -58.96205902
H        3.87564000      26.02240000       3.23314000       1.25172173      -0.69430637      -3.49675992       1.01495481      -0.59350157      -3.14260435       2.19511485      -2.97939444      -2.16580319     -59.23697281
O        9.68477000       1.37939000       1.87607000      -3.50315083      -0.02716487      -0.79879191      -2.90556574      -1.32428229      -0.66651475      -3.63081598      -1.58920610      -0.31740445     -30.85779953
H       10.09050000      -0.98449000       2.04637000       0.01318970       0.17348968      -0.00042607      -0.28529525       1.39509892      -0.11128244       0.09853401       3.35495186      -0.63785052     -58.93391037
H        7.70153000       1.42007000       1.41047000       3.45392241      -0.11226417       0.82758146       3.11091709      -0.05032212       0.72223490       3.57348728      -1.77321017       0.83246970     -59.13239288
O       20.88520000      13.38490000      20.47450000      -5.61609720       2.12119766       2.54252429      -5.00438023       1.96874213       2.31196022       1.10526299       2.66174722       0.26038969     -31.13057709
H       19.49040000      12.45010000      21.30130000       3.33666263       2.16239011      -1.89804920       2.96301293       1.94791317      -1.75476122      -2.89576244      -2.61094213      -1.47280276     -59.15246964
H       20.07500000      14.94410000      20.69340000       2.30513449      -4.29772797      -0.63495004       2.11934519      -3.92348266      -0.55493128       1.59247255      -0.06260590       3.10085702     -59.01688766
O       22.47280000      21.73270000       7.33467000      -0.99118335       4.18026320      -2.34633046      -0.85137922       3.70791602      -2.01669979      -1.94340146       2.86024427       0.91486704     -31.06592751
H       21.39650000      21.84960000       5.65145000       2.03104223      -0.15264313       3.15696540       1.79630637      -0.08207601       2.82825232       2.17390752       0.25008315      -3.48748541     -59.15020370
H       22.92440000      23.54870000       7.67832000      -1.03144941      -4.04534862      -0.83301330      -0.97986609      -3.64605951      -0.71989048      -0.19132280      -3.12228107       2.51510954     -59.10865784
O       16.26450000      16.54420000       4.16331000      -1.38088315      -1.58343637       3.16942155      -1.26993966      -1.48459136       2.81521487      -0.59145868       3.50709391       2.06114292     -31.21893120
H       12.88570000      14.56010000      -0.93643200      -0.01108951      -0.00722232       0.02425849       0.00000000      -0.00000000       0.00000000      -0.75310457      -1.47495127      -4.44346523     -59.40987015
H       15.53660000      15.68930000       5.81546000       1.41955553       1.61995030      -3.15655485       1.26210678       1.45232964      -2.83025885       1.31252599      -2.00492668       2.37384677     -58.94222641
O       14.29960000      10.90400000       2.78886000       0.25426681      -3.90772546       1.87880441       0.32107103      -3.28986788       1.80121994       0.86276650      -2.01147556       4.14122105     -31.04265404
H       15.46010000       9.88843000       4.01768000      -2.29727938       2.00459653      -2.41737283      -2.06440449       1.78015876      -2.17181206       2.40290403       2.18793631      -2.47988558     -59.17285156
H       12.70550000       9.41843000       2.40568000       2.06392513       1.84918227       0.50489431       1.68029916       1.60655463       0.42555299      -3.24851751      -0.24051282      -1.68974304     -59.02119064
O       24.86090000      19.05810000      19.63820000       0.17566903       2.76764541       2.88292121       2.97925234       1.52508497       2.04581642       3.03392887      -3.88919544       1.92816281     -31.73433304
H       24.74860000      20.40260000      21.04610000       0.19750490      -2.81459161      -2.95123870       0.32380152      -2.43100667      -2.52644539       0.00825950       1.75261474      -4.64214087     -59.50909042
H       26.74390000      18.60040000      19.36270000      -0.33734311       0.07442580       0.05000549      -3.38236880       0.84932864       0.57821548      -3.04551697       2.24561739       2.76200819     -59.36418152
O       12.16400000       6.01892000       1.03858000      -0.07335717      -4.21841631       2.80022334      -0.09015852      -3.88044524       2.54586101      -3.14285898      -2.46941519       1.77209759     -32.07778549
H       13.78780000       5.20052000       1.83717000      -3.12384383       1.50440615      -1.49925734      -2.88373089       1.37464595      -1.37666273      -0.98931074       4.01824617      -3.23400974     -59.71808624
H       10.83170000       4.83893000       1.60931000       3.21508182       2.67457775      -1.30371640       2.95130658       2.53166986      -1.19546962       4.21269798      -1.56362200       1.48684692     -59.46482849
O       20.47590000       7.26906000      15.01780000      -1.38117342      -2.03011507       0.21140309      -1.37647092      -2.06771922       0.19893809      -5.33493233      -2.71054506       0.94286686     -32.16802979
H       19.52140000       7.51629000      16.76520000       1.54797231      -0.74698808      -3.08336365       1.44155455      -0.58769929      -2.80827522       1.86236024       3.68300819       2.63943624     -59.55094147
H       20.30000000       5.77668000      13.78750000       0.13789187       2.81577223       2.67234670       0.10118252       2.61451840       2.39780903       3.44240475      -0.99764538      -3.57580256     -59.62133789
O       18.91630000       1.99055000      12.14080000      -1.15788472      -3.92158907       0.67884288      -1.15839398      -3.35993481       0.88103276       1.10984814      -3.49561834       4.18518448     -31.06770325
H       18.39900000       0.64635300      13.36960000       1.15461521       3.01977061      -2.88678482       1.03640032       2.71295404      -2.50133371      -2.63038826       0.25374460      -3.03017831     -59.14720535
H       18.86670000       1.04344000      10.02840000       0.00868665       0.90158032       2.23080776       0.03513378       0.66276479       1.57777560       1.52050066       3.24176669      -1.15503120     -59.06066132
O        4.50036000      24.04070000       6.98324000       4.24780190      -1.50813749       2.65639018       3.92637300      -1.37748241       2.49206543      -1.53992891      -4.96934319      -1.42193246     -30.86082840
H        4.38860000      22.27850000       7.77911000       0.38089265       3.63642582      -1.60076002       0.35573286       3.32916832      -1.45706201       2.29155183       1.55403423       2.61184978     -59.04358292
H        6.02878000      24.69800000       7.36479000      -4.67213624      -2.15593133      -1.05415738      -4.21772099      -2.00131035      -1.05035150      -0.77936494       3.44107485      -1.19192004     -58.98968887
O       26.01880000      16.49520000       6.97149000       0.19094787      -2.98914324      -2.98937090      -1.96298480      -0.53808528      -4.05622339       4.30396271      -1.81924665      -0.81910455     -31.29324341
H       24.79610000      17.69400000       6.10582000       0.23995677      -0.21911747       0.22899354       2.34979653      -2.37392902       1.59754026      -1.48262095       0.19816741      -2.94038033     -58.87487793
H       26.19740000      15.06330000       5.73361000      -0.42458319       3.20603502       2.79883318      -0.41343451       2.92804432       2.44785118      -2.82747364       1.65903544       3.68935895     -59.50389481
O       14.17430000       3.57826000      20.06720000      -0.76536381       4.09996844       0.38286162      -0.59916151       3.67183375       0.27414125      -4.49833393       2.73726487      -0.29944861     -32.01290894
H       15.34570000       5.04533000      20.09290000      -2.83821805      -3.24481781      -0.04414451      -2.55288363      -2.91980171      -0.05398378       0.51045918      -1.93025756      -3.45969105     -59.17013550
H       12.26270000       4.12546000      20.25300000       3.54496534      -0.84753956      -0.26275433       3.21050501      -0.78225398      -0.23340997       3.99535561      -0.81805313       3.74700069     -59.87225342
O        5.69778000       8.68606000       4.65745000      -1.54654099       3.53935468      -1.38360819      -1.36557126       3.06158233      -1.16583991      -1.21178448       2.17274070      -3.17511559     -31.11847305
H        5.04625000       8.84744000       2.73513000       1.06893502      -0.13253762       3.41256447       0.99509788      -0.18429187       3.01367998      -1.16362154      -3.47835207      -0.17582248     -59.02828217
H        5.43559000      10.37990000       5.60628000       0.47303970      -3.39103618      -2.03200115       0.40578356      -2.94827366      -1.77687359       2.36652517       1.32815039       3.36389399     -59.23742294
O       19.18630000      25.00580000       0.65269700       0.08812588      -4.02709443       0.42893583      -1.90534818      -4.50000477      -2.14721775      -0.99830544       3.86831689      -4.34417248     -31.10642052
H       18.01520000      24.53370000      -0.83803800       0.09793546       0.10640013       0.18669567       2.14044929       0.92226112       2.75822043       1.19808924      -4.02026749       0.59794658     -59.19905853
H       19.33080000      23.08490000       1.00673000      -0.25960435       3.89258669      -0.66159906      -0.23145704       3.50428462      -0.59699875      -0.19542426       0.15337880       3.87622428     -58.98487854
O       24.29260000       1.07607000       0.55951800      -3.87253947      -2.38901056      -0.32218211      -3.64760160      -2.21413970      -0.39596859      -2.24454594      -1.80573249      -3.60278845     -31.87767220
H       22.72830000       0.13182200       0.40637800       3.92002101       2.40769457       0.38534169       3.59840679       2.21143579       0.32703519       2.29842234       3.65299606      -1.16738701     -59.36224365
H       24.86360000       0.69115000       4.01308000       0.45338055       0.32282829       2.01062561       0.41624045       0.04621907       1.33461976      -0.04933747      -1.96000206       4.75342369     -59.61818695
O       17.28090000       4.46366000       2.64015000       4.42382575      -1.53758125      -2.63878114       4.02459764      -1.35960567      -2.30575514      -4.92076397       0.18482161       1.79326129     -31.79967499
H       19.18220000       4.86596000       2.63534000      -3.97903797      -0.81124877       0.01883666      -3.56767464      -0.76107836       0.05743932       2.57055759       2.46003985      -3.82075977     -59.65663528
H       17.55340000       3.09018000       1.14649000      -0.47610389       2.33486785       2.60867988      -0.44828841       2.12031507       2.27635360       2.36854792      -2.60643673       2.08510852     -59.20491409
O        6.22723000       1.40214000      11.16370000       1.83709579       3.90517836       1.25228054       1.87786901       1.05160844       1.64288616      -1.99273324       2.44170284       0.49039659     -29.90856743
H        6.87040000       3.04573000      11.61470000      -1.72783222      -4.23966912      -1.16605808      -1.18938184      -3.84230614      -0.83342481       0.07593270       0.24572003      -0.06624815     -58.84521484
H        6.79487000      -0.43349800      11.80320000      -0.11441896       0.31681127      -0.08469986      -0.63486916       2.76420069      -0.75585777       1.96341515      -2.65883303      -0.44176924     -58.82088852
O        0.34088400       6.22179000       5.95320000       0.80475826       3.81046465      -0.88174248      -0.74012023       4.18255091       1.78298974      -4.59280109      -1.00519514      -1.75195050     -32.18870926
H       -0.63584000       6.76009000       7.60407000       0.16549426      -0.11514911      -0.20799748       1.67509747      -0.87771428      -2.85611963       3.19261861       3.40499973      -2.27167106     -59.70254898
H        0.85532700       8.02363000       5.38998000      -1.00830413      -3.74389031       1.13066848      -0.93212181      -3.26526880       1.02785730       1.42314017      -2.45864058       4.00392723     -59.53950119
O       -0.26619500       1.03395000       6.31120000      -0.58413363       3.57402674      -2.46941234       1.16945231       2.27851009       0.08208138      -4.80724525      -1.03876162       0.70432675     -30.80333138
H       -0.41546300       2.95589000       6.04333000       0.34310839      -3.92467254       0.55960263       0.45313424      -3.38557673       0.64873272       2.47258139       3.18197870      -0.57211769     -59.12371826
H        1.12864000       0.35473900       7.60760000      -0.18075193       0.08455525      -0.21271343      -1.99628735       1.10356474      -2.02307439       2.34930182      -2.17447329      -0.17565750     -58.83888245
O        7.08287000      18.71470000       0.90171100      -0.16666463       1.73006769       2.39432132      -2.85279155       2.20387149       0.44354293      -0.75879896      -4.67962456       0.69599724     -31.07470703
H        7.12739000      19.92840000       2.68713000      -0.06706553      -1.75441794      -2.55803830      -0.11151274      -1.40443456      -2.13786530       2.32723808       2.33819246       2.08347178     -59.07816315
H        5.45451000      19.17070000      -0.09509700       0.27495025      -0.07249850       0.13949415       2.90531063      -0.78130913       1.92949653      -1.54522276       2.37596488      -2.76423979     -59.11921310
O       24.60430000      10.51160000      16.77250000      -2.77383561       1.63523026       1.29413375      -2.54297924       1.52876925       1.16622829       0.55422562      -5.47373199       3.05433989     -31.56125450
H       24.52000000      12.02040000      18.03870000      -0.07665740      -2.96239369      -2.47790949      -0.00337715      -2.60687160      -2.17359304      -1.97711635       3.12156582       1.15855360     -59.09571075
H       22.78600000       9.78414000      16.09050000       2.83787456       1.27395653       1.20283023       2.53191900       1.13788366       1.03764987       1.42053592       2.36246109      -4.17957163     -59.55168152
O       24.15600000      13.55630000       2.94016000      -0.09373445      -4.01992761      -3.99038828      -0.15515129      -3.59943676      -3.60474658      -2.23728323       2.62751746       2.92807102     -30.86591721
H       23.02680000      11.99910000       2.58228000       2.26443368       3.19595497       0.74438404       2.04237080       2.89348412       0.71541184       0.77486408       0.85935801      -3.23360109     -58.93153000
H       25.22410000      13.15560000       1.35180000      -2.12629985       0.82793069       3.24879204      -1.94983387       0.77285612       2.89662647       1.37611830      -3.49226975       0.29346833     -59.07227325
O       16.55700000      17.34620000      19.63770000      -2.85727904       0.66259750       1.37639583      -2.63996649       0.80262691       1.27688599      -2.70952201      -3.15782309       3.40242195     -31.33030319
H       15.51480000      18.76400000      19.16890000       2.35676622      -3.61004296       1.48200493       2.13919020      -3.27811098       1.30084562       2.54901433       1.09441912       1.35659492     -58.83306122
H       16.19410000      16.08830000      21.03540000       0.44613867       2.88632391      -2.84791349       0.39564070       2.52796125      -2.54725647       0.18262236       2.04250455      -4.72562885     -59.58545685
O       14.86970000      22.95540000      14.35510000      -1.07311104       2.86941179      -3.91884000      -1.05200171       2.58216763      -3.50678444       0.37074158      -1.37735295      -6.63010836     -31.80214882
H       14.96870000      22.21120000      12.46180000      -0.21492065       1.40774449       3.29299943      -0.16586374       1.17828119       2.96983004      -0.81620240       3.94810009       2.79616666     -59.49846649
H       14.31260000      24.70260000      14.05970000       1.32936695      -4.27228256       0.62744678       1.17645144      -3.79271841       0.56900871       0.49586523      -2.53866005       3.89506221     -59.41162872
O        4.65150000      18.69850000       8.44589000      -1.41363450      -2.80437808       1.76678323      -1.73725951      -2.38519669       1.44960380      -3.06043863       3.36239934      -1.82513523     -31.04560471
H        6.68336000      17.53960000       8.72949000      -1.97277233       1.00424826      -0.22327302      -1.24218106       0.66283184      -0.19918248       4.11855841      -1.43494582      -0.94945681     -59.28575516
H        3.11625000      17.79260000       9.15566000       3.36318346       1.84590099      -1.57534795       3.00654674       1.70536852      -1.35650253      -1.12959111      -1.93100274       2.76961660     -58.93814468
O        7.19780000      18.06420000      13.91540000      -2.75353380      -1.09808603       1.22454203      -2.40637064      -0.87539208       1.18221855       2.61245155       3.44584370       2.19067669     -30.70714378
H        5.78145000      17.87340000      12.55380000       2.52427094       0.27411460       2.85588435       2.24296761       0.22444101       2.56143093       0.78884959      -2.22045779      -2.53842115     -58.92113876
H        6.96015000      17.66040000      15.74630000       0.20149217       0.73109487      -3.99840686       0.23249771       0.67938876      -3.68000650      -3.30122471      -1.19191098       0.29766586     -58.96081924
O       10.48940000      10.69570000      21.21720000      -1.94079245      -4.13251612       1.73972075      -1.69473374      -3.60994244       1.51554704       0.80103278       3.57981253      -5.28453255     -32.14779282
H        9.88906000       9.01435000      20.33520000       1.14410239       3.22272496       1.73265649       1.00616670       2.83289766       1.49521983      -1.35711050      -5.13553524       1.16995907     -59.78539276
H       10.04300000      10.18460000      23.12430000       0.80117269       0.91413728      -3.47047254       0.69651824       0.78758770      -3.00994611       0.56646794       1.69239211       4.03679466     -59.45509338
O       22.08440000       8.04121000       1.24226000       4.44887900      -1.16552612       3.70118200       4.02755833      -1.06723714       3.23623228      -2.57953978      -3.78639603      -1.98192263     -31.07674408
H       22.38860000       8.34446000       3.18301000      -0.65061551      -0.56668566      -3.74405637      -0.57187665      -0.48552227      -3.29405880      -1.80368507       1.70463681       1.64973235     -58.76612473
H       23.82970000       7.24914000       1.18005000      -3.77975430       1.69766699       0.04860228      -3.43066764       1.55705571       0.07859854       4.42046833       2.09334993       0.41977045     -59.46471024
O        6.27945000      10.53320000      10.24270000       0.62920284       4.80510598       1.72916136       0.61682528       4.29215240       1.58498478      -1.05552197      -2.62441015       4.13268471     -30.78735924
H        5.01914000      11.98430000      10.33170000       2.77701443      -3.10680027      -0.13079734       2.44692922      -2.72818565      -0.14515668       2.04140568      -0.60839146      -3.00904846     -59.02026367
H        7.85372000      11.34740000      10.99770000      -3.40730438      -1.71140394      -1.57489818      -3.07160902      -1.50291967      -1.45309567      -1.01436317       3.24412203      -1.10155511     -58.96198273
O        9.51877000       1.93020000      15.85430000       3.61831284      -1.08660270       1.78944001       3.00829172      -1.08838320       1.64566660       2.62925529       1.43578792      -3.02327108     -31.28994751
H       10.19770000       0.20840300      16.81510000      -1.09938881       2.74852486      -1.55111968      -0.95808661       2.47599268      -1.35236800       1.43750882       1.25650430       2.92504597     -59.14678574
H       11.32520000       3.11692000      16.05280000      -2.50013317      -1.66606187      -0.26083610      -2.09691858      -1.40044188      -0.21520230      -4.19291306      -2.38022709      -0.05159730     -59.42815018
O        5.38926000       6.43653000      17.97500000       4.32454937      -2.48769481      -3.22157982       3.98289776      -2.19985056      -2.87465215       0.85538280      -2.53324556      -2.74490118     -30.50854301
H        7.12219000       5.90323000      18.13440000      -4.46475094       1.36759044      -0.39330778      -4.00699997       1.24350345      -0.33511341       2.10606050       2.10121822       0.54895848     -58.77151489
H        5.32795000       5.87399000      16.06270000       0.08838926       1.07993405       3.60055871       0.12641983       0.95770973       3.25007248      -2.94432592       0.44376987       2.19783854     -58.98282242
O       15.08960000      24.05120000      22.72000000       2.91735859      -2.55151522      -3.38335971       1.97722948       0.36121786      -4.02562046       3.98935699       1.39376903       1.96694088     -30.94963455
H       14.74880000      25.84670000      21.93720000       0.03657157      -0.27813085       0.12140130       0.63872397      -3.07393217       1.18496609      -2.30853319      -2.99343681       1.13189232     -59.06317902
H       16.03230000      23.10960000      21.64560000      -2.85261110       2.86258395       3.26018149      -2.64402342       2.77653003       2.91021061      -1.78942132       1.65445232      -3.11104894     -59.03970718
O        0.04917300       5.56384000      18.43930000       4.23187530       0.12815467      -0.17782391       3.36761355       3.50810671      -0.04563827       2.08300018      -4.05899906       2.66896725     -31.26370239
H        1.95599000       5.43100000      18.31590000      -4.16926073       0.27091605       0.24217686      -3.77109361       0.30035579       0.24223766      -1.30841172       3.29826736       1.72957313     -59.09671021
H       -0.10663800       7.45051000      18.54460000      -0.03201891      -0.35437099      -0.08804394       0.36336452      -3.84442759      -0.22478254      -0.78672808       0.76724869      -4.34059191     -59.29199219
O       11.34600000      19.61050000      22.51480000       0.23100658       3.85643267       3.30126914      -2.43646479       2.40904999       4.78582001       0.06155728       4.77207756      -3.48190498     -31.88543701
H       10.30610000      18.77480000      23.95410000      -1.18068223       1.59341636      -2.37731140       0.20432642       2.36752176      -3.58059835       2.54170132       0.15547197       2.82111025     -59.07923508
H       11.82710000      21.06990000      23.27080000      -1.40507240      -4.35808458      -2.33480414      -1.39910746      -4.05251598      -1.97675145      -2.57307172      -4.84990215       0.65388817     -59.84786224
O       17.82560000      10.16340000      24.22600000      -2.73179124      -3.00048823       1.73596797      -2.41207051      -2.60690737       1.71339095      -1.55650735      -4.07384205       1.71707344     -31.54648399
H       16.02810000      10.22190000      24.95260000       3.79401343      -0.20753402      -1.43424590       3.38610291      -0.18677202      -1.36748660       4.28948116       0.30098623      -1.84646356     -59.34530640
H       18.44230000       8.20312000      24.47620000      -1.06572382       3.25341387      -0.34006145      -0.99472201       2.77872467      -0.33448529      -2.65679836       3.71126962       0.12361363     -59.34140396
O       26.33410000      18.29170000      14.42130000       1.70421301       2.70671940      -2.50599555       0.02276386       4.70820618      -0.34306294      -1.10257852       4.28572798       2.59849977     -30.91671562
H       25.51390000      19.66240000      15.52360000       0.11154193      -0.29645471      -0.15403072       1.53670788      -2.50832343      -2.21124530       2.73215914      -3.33596516      -0.01405402     -59.24108887
H       27.19340000      19.45730000      13.11860000      -1.79740892      -2.46936757       2.70722470      -1.60870171      -2.10394335       2.41778469      -1.59742844      -0.96369326      -2.62696314     -58.83775330
O       18.03730000      22.67680000      18.92020000       0.38996345      -0.98843109      -4.59795735       0.49056637      -0.88685495      -4.19660616      -2.89714384      -2.00451875      -4.89692688     -32.16694641
H       16.43840000      22.36650000      17.73930000       2.99379218       0.58251388       2.04325147       2.70334864       0.52582264       1.82861531       4.37768555       0.99835056      -0.20913100     -59.37920380
H       19.52690000      22.48550000      17.77040000      -3.46233733       0.43202381       2.56933050      -3.08955669       0.37522554       2.28486037      -1.53234637       1.05002856       5.08958054     -59.79947662
O       22.67590000      23.39890000      12.59050000      -2.40576825      -1.51718131       0.45007892      -2.12540817      -1.58663356       0.24886017      -1.80713391      -4.93844128      -1.19960499     -31.00888252
H       21.82980000      25.17450000      13.43000000       0.91020847      -2.55935363      -1.10752964       0.78489995      -2.13759184      -0.96615815       1.84743547       4.92799854       1.19493914     -59.74847031
H       21.92470000      21.72080000      12.35230000       1.50441217       4.11111756       0.67376813       1.37742615       3.61903572       0.59966451       0.22712266       0.02298340      -2.00810862     -58.60644531
O       13.59660000      15.79560000       9.47223000      -3.32693300       1.37337463       2.04325754      -2.91145229       1.14857090       1.90325141      -2.19666266       3.80168152      -3.24330282     -31.34793854
H       13.21800000      17.77050000       9.64796000       0.57902158      -3.63349329      -0.22166666       0.49202064      -3.12120700      -0.20749906      -1.30550027      -2.58614492      -0.44848219     -58.79688263
H       12.23640000      14.75230000      10.40260000       2.74024761       2.22812630      -1.80685727       2.44809961       2.02772188      -1.65193975       3.47481513      -1.17233181       3.68890619     -59.62808228
O        9.69212000       4.65098000      22.14590000      -0.11569266      -0.05996527       4.13314173      -0.08963710      -0.01572418       3.70510435      -1.90730143      -4.11311960       2.18374276     -31.22436714
H       10.79280000       5.27606000      23.60760000      -2.38231984      -1.37833663      -2.96859943      -2.19352150      -1.20572567      -2.65445709       1.91448307      -0.21933195      -3.21609068     -59.05475998
H        8.00600000       3.69080000      22.99770000       2.61367485       1.45065373      -1.19389815       2.22440958       1.26831889      -1.02491760      -0.06432505       4.32512712       1.04921138     -59.28754425
O        3.11908000      13.81770000      14.80710000      -3.85943732       1.27526386       1.89662557      -3.51768303       1.10222197       1.57439244      -1.66048360      -3.51643181      -1.02673340     -30.29738998
H        2.32555000      15.39200000      15.67350000       1.52089461      -3.11927919      -1.79150992       1.31466579      -2.83423376      -1.61711001       2.18446207      -0.09349775      -0.37048531     -58.56675339